# vtk DataFile Version 3.0
# Solution du M1 TR
ASCII
DATASET UNSTRUCTURED_GRID
POINTS    560  float
0.0000000E+00  0.0000000E+00  0.0000000E+00
0.0000000E+00  0.1000000E+01  0.0000000E+00
0.1000000E+01  0.1000000E+01  0.0000000E+00
0.1000000E+01  0.0000000E+00  0.0000000E+00
0.5000000E+00  0.5000000E+00  0.0000000E+00
0.0000000E+00  0.5000000E+00  0.0000000E+00
0.5000000E+00  0.0000000E+00  0.0000000E+00
0.2500000E+00  0.5000000E+00  0.0000000E+00
0.2500000E+00  0.9687500E+00  0.0000000E+00
0.5000000E+00  0.1000000E+01  0.0000000E+00
0.0000000E+00  0.2500000E+00  0.0000000E+00
0.3750000E+00  0.2500000E+00  0.0000000E+00
0.2500000E+00  0.3125000E-01  0.0000000E+00
0.1250000E+00  0.7500000E+00  0.0000000E+00
0.3911638E+00  0.7429957E+00  0.0000000E+00
0.1000000E+01  0.5000000E+00  0.0000000E+00
0.7500000E+00  0.0000000E+00  0.0000000E+00
0.6562500E+00  0.2656250E+00  0.0000000E+00
0.7500000E+00  0.4973958E+00  0.0000000E+00
0.8723823E+00  0.7500000E+00  0.0000000E+00
0.7500000E+00  0.9700452E+00  0.0000000E+00
0.6322989E+00  0.7103680E+00  0.0000000E+00
0.9186790E+00  0.2500000E+00  0.0000000E+00
0.6241122E+00  0.4134706E+00  0.0000000E+00
0.8850551E+00  0.9011034E+00  0.0000000E+00
0.8750000E+00  0.9756571E-01  0.0000000E+00
0.1000000E+01  0.7500000E+00  0.0000000E+00
0.7926728E+00  0.3452888E+00  0.0000000E+00
0.3854167E+00  0.9895833E-01  0.0000000E+00
0.2599627E+00  0.8179678E+00  0.0000000E+00
0.3750000E+00  0.4062500E+00  0.0000000E+00
0.1145833E+00  0.9010417E+00  0.0000000E+00
0.0000000E+00  0.7500000E+00  0.0000000E+00
0.1250000E+00  0.5937500E+00  0.0000000E+00
0.6250000E+00  0.1052390E+00  0.0000000E+00
0.7376584E+00  0.8191260E+00  0.0000000E+00
0.1760417E+00  0.1989583E+00  0.0000000E+00
0.1250000E+00  0.3750000E+00  0.0000000E+00
0.7663311E+00  0.6454318E+00  0.0000000E+00
0.5266793E+00  0.8371547E+00  0.0000000E+00
0.5008484E+00  0.6462514E+00  0.0000000E+00
0.6257190E+00  0.5677212E+00  0.0000000E+00
0.2566406E+00  0.6672397E+00  0.0000000E+00
0.9969894E+00  0.1250000E+00  0.0000000E+00
0.1000000E+01  0.2500000E+00  0.0000000E+00
0.0000000E+00  0.3750000E+00  0.0000000E+00
0.1020690E+00  0.2729310E+00  0.0000000E+00
0.7237960E-01  0.1705329E+00  0.0000000E+00
0.1178133E+00  0.7311825E-01  0.0000000E+00
0.4762698E+00  0.4014320E+00  0.0000000E+00
0.5303440E+00  0.3156721E+00  0.0000000E+00
0.8046824E+00  0.2302127E+00  0.0000000E+00
0.9230908E+00  0.3867911E+00  0.0000000E+00
0.8750000E+00  0.0000000E+00  0.0000000E+00
0.0000000E+00  0.8750000E+00  0.0000000E+00
0.2783119E+00  0.1438971E+00  0.0000000E+00
0.6250000E+00  0.0000000E+00  0.0000000E+00
0.6191150E+00  0.9359067E+00  0.0000000E+00
0.6312034E+00  0.8168420E+00  0.0000000E+00
0.1000000E+01  0.8750000E+00  0.0000000E+00
0.2578125E+00  0.3281250E+00  0.0000000E+00
0.3882478E+00  0.8980833E+00  0.0000000E+00
0.5030887E+00  0.1829537E+00  0.0000000E+00
0.3906250E-02  0.6250000E+00  0.0000000E+00
0.7508108E+00  0.1278183E+00  0.0000000E+00
0.1406250E+00  0.4843750E+00  0.0000000E+00
0.8748313E+00  0.5148913E+00  0.0000000E+00
0.9361911E+00  0.6250000E+00  0.0000000E+00
0.3750000E+00  0.5738533E+00  0.0000000E+00
0.3750000E+00  0.1000000E+01  0.0000000E+00
0.3001743E+00  0.8963449E+00  0.0000000E+00
0.3480054E+00  0.8197554E+00  0.0000000E+00
0.1698254E+00  0.8289714E+00  0.0000000E+00
0.4371347E+00  0.8214313E+00  0.0000000E+00
0.8282243E+00  0.8297866E+00  0.0000000E+00
0.4772928E+00  0.9126717E+00  0.0000000E+00
0.1634524E+00  0.6718750E+00  0.0000000E+00
0.2128157E+00  0.7436063E+00  0.0000000E+00
0.4961093E+00  0.1010641E+00  0.0000000E+00
0.6250000E+00  0.1000000E+01  0.0000000E+00
0.1250000E+00  0.0000000E+00  0.0000000E+00
0.5722362E+00  0.2379112E+00  0.0000000E+00
0.3424479E+00  0.3281250E+00  0.0000000E+00
0.9424053E+00  0.5493859E+00  0.0000000E+00
0.6101384E+00  0.3330173E+00  0.0000000E+00
0.9321698E+00  0.4633520E+00  0.0000000E+00
0.3358283E+00  0.6839399E+00  0.0000000E+00
0.4116682E+00  0.6556927E+00  0.0000000E+00
0.6250000E-01  0.6893921E+00  0.0000000E+00
0.8765666E+00  0.6733497E+00  0.0000000E+00
0.8473113E+00  0.6023785E+00  0.0000000E+00
0.7637566E+00  0.4241543E+00  0.0000000E+00
0.8381824E+00  0.4279440E+00  0.0000000E+00
0.1000000E+01  0.3750000E+00  0.0000000E+00
0.4903282E+00  0.7448741E+00  0.0000000E+00
0.5699048E+00  0.7629687E+00  0.0000000E+00
0.6638849E+00  0.4901900E+00  0.0000000E+00
0.1000000E+01  0.6250000E+00  0.0000000E+00
0.7331323E+00  0.7291651E+00  0.0000000E+00
0.8071726E+00  0.7100728E+00  0.0000000E+00
0.2866293E+00  0.5835493E+00  0.0000000E+00
0.6867445E+00  0.6519537E+00  0.0000000E+00
0.7126852E+00  0.5764312E+00  0.0000000E+00
0.4098050E+00  0.4900516E+00  0.0000000E+00
0.3306035E+00  0.5062857E+00  0.0000000E+00
0.4590292E+00  0.5733658E+00  0.0000000E+00
0.5827105E+00  0.6452264E+00  0.0000000E+00
0.5424884E+00  0.5739198E+00  0.0000000E+00
0.2055377E+00  0.3916016E+00  0.0000000E+00
0.2842371E+00  0.4154412E+00  0.0000000E+00
0.1775174E+00  0.9444444E+00  0.0000000E+00
0.2500000E+00  0.1000000E+01  0.0000000E+00
0.6250000E-01  0.9565515E+00  0.0000000E+00
0.1250000E+00  0.1000000E+01  0.0000000E+00
0.5625000E+00  0.5261949E-01  0.0000000E+00
0.3224826E+00  0.5555556E-01  0.0000000E+00
0.3533462E+00  0.1726266E+00  0.0000000E+00
0.4375000E+00  0.4344846E-01  0.0000000E+00
0.3750000E+00  0.0000000E+00  0.0000000E+00
0.2500000E+00  0.0000000E+00  0.0000000E+00
0.6830520E+00  0.8822521E+00  0.0000000E+00
0.9274068E+00  0.8214683E+00  0.0000000E+00
0.5877997E+00  0.8725813E+00  0.0000000E+00
0.8719553E+00  0.1809132E+00  0.0000000E+00
0.7459677E-01  0.5307460E+00  0.0000000E+00
0.7069791E+00  0.3758855E+00  0.0000000E+00
0.6429465E+00  0.1849796E+00  0.0000000E+00
0.7340614E+00  0.2890171E+00  0.0000000E+00
0.7211336E+00  0.2088007E+00  0.0000000E+00
0.8524368E+00  0.2933612E+00  0.0000000E+00
0.7224151E-01  0.8222415E+00  0.0000000E+00
0.6875000E+00  0.5261949E-01  0.0000000E+00
0.2599106E-01  0.8959510E-01  0.0000000E+00
0.9375000E+00  0.9563951E+00  0.0000000E+00
0.8221702E+00  0.9446692E+00  0.0000000E+00
0.7500000E+00  0.1000000E+01  0.0000000E+00
0.8750000E+00  0.1000000E+01  0.0000000E+00
0.6445312E-01  0.4394531E+00  0.0000000E+00
0.2002065E+00  0.1036461E+00  0.0000000E+00
0.1875000E+00  0.5468750E+00  0.0000000E+00
0.4519794E+00  0.2411886E+00  0.0000000E+00
0.4380560E+00  0.3174094E+00  0.0000000E+00
0.5478384E+00  0.4363424E+00  0.0000000E+00
0.8125000E+00  0.4878285E-01  0.0000000E+00
0.9375000E+00  0.4878285E-01  0.0000000E+00
0.3956900E-01  0.3125000E+00  0.0000000E+00
0.1861416E+00  0.2830309E+00  0.0000000E+00
0.2658988E+00  0.2357703E+00  0.0000000E+00
0.1562500E+00  0.5703125E+00  0.0000000E+00
0.1328125E+00  0.5390625E+00  0.0000000E+00
0.1640625E+00  0.5156250E+00  0.0000000E+00
0.1025391E+00  0.4619141E+00  0.0000000E+00
0.9472656E-01  0.4072266E+00  0.0000000E+00
0.1328125E+00  0.4296875E+00  0.0000000E+00
0.3125000E-01  0.9782758E+00  0.0000000E+00
0.9375000E-01  0.9782758E+00  0.0000000E+00
0.6250000E-01  0.1000000E+01  0.0000000E+00
0.7812500E+00  0.2439143E-01  0.0000000E+00
0.7816554E+00  0.8830059E-01  0.0000000E+00
0.7504054E+00  0.6390916E-01  0.0000000E+00
0.3925151E-01  0.5778730E+00  0.0000000E+00
0.1953125E-02  0.5625000E+00  0.0000000E+00
0.3729839E-01  0.5153730E+00  0.0000000E+00
0.4114583E+00  0.7120340E-01  0.0000000E+00
0.4668046E+00  0.7225630E-01  0.0000000E+00
0.4407630E+00  0.1000112E+00  0.0000000E+00
0.3133425E+00  0.3717831E+00  0.0000000E+00
0.2710248E+00  0.3717831E+00  0.0000000E+00
0.3001302E+00  0.3281250E+00  0.0000000E+00
0.4170146E+00  0.5736096E+00  0.0000000E+00
0.3924025E+00  0.5319525E+00  0.0000000E+00
0.4344171E+00  0.5317087E+00  0.0000000E+00
0.1626033E+00  0.5182305E-01  0.0000000E+00
0.1590099E+00  0.8838218E-01  0.0000000E+00
0.1214067E+00  0.3655913E-01  0.0000000E+00
0.3125000E-01  0.9157758E+00  0.0000000E+00
0.0000000E+00  0.9375000E+00  0.0000000E+00
0.2347281E+00  0.7054230E+00  0.0000000E+00
0.2962344E+00  0.6755898E+00  0.0000000E+00
0.2743220E+00  0.7137731E+00  0.0000000E+00
0.6347275E+00  0.6485900E+00  0.0000000E+00
0.6042147E+00  0.6064738E+00  0.0000000E+00
0.6562318E+00  0.6098374E+00  0.0000000E+00
0.4819070E+00  0.8292930E+00  0.0000000E+00
0.5019860E+00  0.8749132E+00  0.0000000E+00
0.4572137E+00  0.8670515E+00  0.0000000E+00
0.2209702E+00  0.2173643E+00  0.0000000E+00
0.2260202E+00  0.2594006E+00  0.0000000E+00
0.1810916E+00  0.2409946E+00  0.0000000E+00
0.4549025E+00  0.4950258E+00  0.0000000E+00
0.4795146E+00  0.5366829E+00  0.0000000E+00
0.4687500E+00  0.2172423E-01  0.0000000E+00
0.4062500E+00  0.2172423E-01  0.0000000E+00
0.4375000E+00  0.0000000E+00  0.0000000E+00
0.3487413E+00  0.2777778E-01  0.0000000E+00
0.3802083E+00  0.4947917E-01  0.0000000E+00
0.3539497E+00  0.7725694E-01  0.0000000E+00
0.4911617E+00  0.2784303E+00  0.0000000E+00
0.4842000E+00  0.3165407E+00  0.0000000E+00
0.4450177E+00  0.2792990E+00  0.0000000E+00
0.6882851E+00  0.5333106E+00  0.0000000E+00
0.6692021E+00  0.5720762E+00  0.0000000E+00
0.6448020E+00  0.5289556E+00  0.0000000E+00
0.4327703E+00  0.9053775E+00  0.0000000E+00
0.4126912E+00  0.8597573E+00  0.0000000E+00
0.9680956E+00  0.6875000E+00  0.0000000E+00
0.9680956E+00  0.6250000E+00  0.0000000E+00
0.1000000E+01  0.6875000E+00  0.0000000E+00
0.9062500E+00  0.7317428E-01  0.0000000E+00
0.9672447E+00  0.8689143E-01  0.0000000E+00
0.9359947E+00  0.1112829E+00  0.0000000E+00
0.6562500E+00  0.2630974E-01  0.0000000E+00
0.6562500E+00  0.7892923E-01  0.0000000E+00
0.6250000E+00  0.5261949E-01  0.0000000E+00
0.6854320E+00  0.4330378E+00  0.0000000E+00
0.7353679E+00  0.4000199E+00  0.0000000E+00
0.7138208E+00  0.4571722E+00  0.0000000E+00
0.9687500E+00  0.9156976E+00  0.0000000E+00
0.1000000E+01  0.9375000E+00  0.0000000E+00
0.9687500E+00  0.9781976E+00  0.0000000E+00
0.6439986E+00  0.4518303E+00  0.0000000E+00
0.6655457E+00  0.3946781E+00  0.0000000E+00
0.9112776E+00  0.9287493E+00  0.0000000E+00
0.9062500E+00  0.9781976E+00  0.0000000E+00
0.8800276E+00  0.9505517E+00  0.0000000E+00
[...]
POINT_DATA     560
SCALARS hauteur float
LOOKUP_TABLE DEFAULT
       0.0000000E+00
       0.0000000E+00
       0.0000000E+00
       0.0000000E+00
       2.1430807E-03
       0.0000000E+00
       0.0000000E+00
       6.8100018E-03
       1.1134089E-03
       0.0000000E+00
       0.0000000E+00
       1.1867859E-02
       6.7543290E-04
       4.7878969E-03
       1.1858646E-02
       0.0000000E+00
       0.0000000E+00
       5.6926271E-03
       6.8594556E-03
       1.6144406E-02
       1.3535473E-03
       4.5230718E-03
       1.8673729E-03
       8.9285368E-03
       1.7920282E-03
       1.3729329E-03
       0.0000000E+00
       4.0015865E-03
       1.8314865E-03
       1.1235611E-02
       5.6510835E-03
       1.1375803E-03
       0.0000000E+00
       2.8268677E-03
       2.8462804E-03
       5.0445848E-03
       2.8788227E-03
       2.3568198E-03
       5.5426079E-03
       3.5144942E-03
       4.8738495E-03
       6.3250810E-03
       5.8635838E-03
       4.8008877E-04
       0.0000000E+00
       0.0000000E+00
       2.8497666E-03
       1.7601085E-03
       4.2172946E-03
       5.5368798E-03
       4.4387315E-03
       6.3184617E-03
       4.4803248E-03
       0.0000000E+00
       0.0000000E+00
       2.2988672E-03
       0.0000000E+00
       4.4374940E-03
       6.6599251E-03
       0.0000000E+00
       2.9763234E-03
       9.2813206E-03
       9.7961956E-03
       2.1785864E-03
       2.5262522E-03
       3.3925997E-03
       1.1871004E-02
       1.0781483E-02
       8.9133054E-03
       0.0000000E+00
       2.4692353E-03
       5.6814760E-03
       2.4570854E-03
       4.8380855E-03
       1.5026905E-02
       3.1027901E-03
       2.1921451E-03
       6.2089825E-03
       6.9285129E-03
       0.0000000E+00
       0.0000000E+00
       5.5934319E-03
       4.7199939E-03
       2.3092550E-03
       7.4272298E-03
       2.0015625E-03
       4.7452985E-03
       2.4062585E-03
       2.9512565E-03
       1.6931635E-02
       2.9688761E-03
       1.0988083E-02
       4.0367819E-03
       0.0000000E+00
       4.0823690E-03
       4.2478636E-03
       4.9886270E-03
       0.0000000E+00
       2.4481923E-03
       2.5658146E-04
       6.6456845E-03
       3.9776832E-03
       6.9271052E-03
       6.6665376E-03
       5.3358819E-03
       8.7451943E-03
       1.5343121E-02
       6.2291388E-03
       6.6577452E-03
       3.9894053E-03
       1.1461421E-03
       0.0000000E+00
       1.4650827E-03
       0.0000000E+00
       6.7101480E-03
       9.6139400E-04
       7.0817249E-03
       5.9753144E-03
       0.0000000E+00
       0.0000000E+00
       1.1323298E-02
       1.0574835E-03
       3.7974736E-03
       2.5623323E-03
       1.2728837E-03
       5.7223429E-03
       5.2782721E-03
       1.1733885E-02
       1.2031010E-02
       1.7880552E-03
       1.5460982E-03
       5.0975902E-03
       7.9954778E-04
       4.3771756E-04
       4.7121829E-04
       0.0000000E+00
       0.0000000E+00
       2.3535845E-03
       3.7893904E-03
       3.4511916E-03
       1.5186199E-03
       7.6621108E-03
       6.2751654E-03
       9.8411091E-04
       1.6508652E-03
       2.9317419E-03
       4.8786645E-03
       4.7520925E-03
       2.8270440E-03
       3.4076958E-03
       2.5051420E-03
       2.4511351E-03
       2.5436734E-03
       2.1038567E-03
       5.6558592E-04
       7.3211450E-04
       0.0000000E+00
       2.7703736E-04
       1.8296680E-03
       1.3704432E-03
       1.0962431E-03
       5.9889210E-04
       8.4895054E-04
       3.3211687E-03
       5.0144316E-03
       3.4871298E-03
       3.2332013E-03
       3.7427278E-03
       2.9926331E-03
       7.1340315E-03
       9.1447333E-03
       5.9382864E-03
       1.6614236E-03
       2.9679886E-03
       1.7520251E-03
       8.7371316E-04
       0.0000000E+00
       4.9692141E-03
       6.8129465E-03
       4.3945270E-03
       8.1815764E-03
       9.2230566E-03
       3.8350692E-03
       3.2626047E-03
       4.5586392E-03
       3.1591020E-03
       3.1521091E-03
       5.0920583E-03
       3.5899890E-03
       3.4609600E-03
       5.8804530E-03
       2.6773442E-03
       2.2736990E-03
       0.0000000E+00
       2.6025797E-04
       9.4959622E-04
       1.5596413E-03
       2.5172866E-03
       4.9813720E-03
       3.9218877E-03
       4.3930019E-03
       6.2086218E-03
       5.7599645E-03
       5.3023905E-03
       7.1927771E-03
       4.5970357E-03
       4.1566715E-03
       0.0000000E+00
       1.1934759E-03
       1.0705649E-03
       6.7566744E-04
       1.9280861E-03
       3.4291821E-03
       1.0898099E-03
       4.0731249E-03
       8.0593223E-03
       6.6363024E-03
       1.0582979E-04
       0.0000000E+00
       1.2795102E-04
       7.7579189E-03
       5.9698889E-03
       8.5562995E-04
       5.2678595E-04
       5.2489352E-04
       2.9139101E-03
       3.7413803E-03
       3.0164066E-03
       2.8996861E-03
       1.7921446E-03
       0.0000000E+00
       3.4726337E-03
       5.1285076E-03
       5.5369816E-03
       6.7961973E-03
       6.9541829E-03
       2.1738254E-03
       5.7260677E-04
       0.0000000E+00
       6.2571847E-04
       4.3490327E-03
       3.1348589E-03
       2.0757689E-03
       4.9423677E-03
       5.9529119E-03
       3.2081729E-03
       3.5936825E-03
       4.9518530E-03
       4.3480994E-03
       8.6548031E-03
       9.3696292E-03
       5.3619056E-03
       7.0045543E-03
       4.8256116E-03
       3.0764136E-03
       3.3580076E-03
       5.7215203E-03
       7.0029748E-03
       3.2905067E-03
       3.1141821E-03
       6.3373231E-03
       4.2152480E-03
       2.9782801E-03
       1.1336608E-03
       6.8369991E-03
       5.9526432E-03
       3.2188429E-03
       3.5489508E-03
       2.6913047E-03
       1.9561615E-03
       3.2329235E-03
       1.7299505E-03
       2.6658209E-03
       1.0398055E-03
       2.2487466E-03
       2.5916801E-03
       8.8585386E-04
       2.6594517E-03
       4.2222172E-03
       6.8927422E-03
       8.4824988E-03
       5.6388899E-03
       2.5628249E-03
       2.7182205E-03
       1.0779666E-03
       3.6230242E-03
       6.4119984E-03
       4.7828377E-03
       2.2998313E-03
       0.0000000E+00
       3.0342824E-04
       6.6516616E-04
       8.6270745E-04
       6.2656075E-04
       2.1526763E-03
       2.8804677E-03
       2.9495346E-03
       5.1250563E-03
       3.5336652E-03
       1.6285665E-03
       5.6247245E-03
       3.1288954E-03
       3.4598562E-03
       2.9385388E-03
       4.9670568E-03
       4.1644899E-03
       3.0176351E-03
       4.1139206E-03
       3.7917410E-03
       5.5467967E-03
       4.0516175E-03
       6.9969891E-03
       8.8778800E-03
       3.4717321E-03
       4.1254895E-03
       3.7400849E-03
       1.5673026E-03
       7.4936544E-04
       6.4106460E-04
       3.8226045E-03
       8.4620413E-03
       7.4119300E-03
       1.2750608E-03
       1.6742883E-03
       7.0469528E-03
       1.1453709E-02
       7.3570032E-03
       5.1385003E-03
       2.9082929E-03
       7.1761443E-03
       7.9909838E-03
       4.2986130E-03
       2.2724033E-03
       6.9586402E-03
       7.3086311E-05
       0.0000000E+00
       3.7848492E-04
       4.6720477E-03
       4.6255952E-03
       8.8861947E-03
       7.1559100E-03
       2.7943957E-03
       8.8953231E-03
       7.3957158E-03
       4.1394363E-03
       7.8935671E-03
       6.1979844E-03
       7.9697269E-03
       7.7480908E-03
       3.8783835E-03
       6.0938585E-03
       6.3498171E-03
       1.4293003E-03
       8.0963163E-04
       5.7043853E-03
       3.9501135E-03
       1.8500596E-03
       6.2843409E-03
       6.9781537E-03
       3.2461475E-03
       2.0009203E-03
       2.6491496E-03
       2.2974333E-03
       0.0000000E+00
       5.9066795E-03
       7.8200896E-03
       3.5337399E-03
       4.7965320E-03
       5.5835488E-03
       2.1124801E-03
       3.5221795E-03
       4.1568958E-03
       0.0000000E+00
       4.4169978E-04
       5.1249653E-04
       4.3222394E-03
       1.0258973E-03
       6.5828911E-03
       6.8699957E-03
       4.7244487E-03
       7.8804159E-03
       5.6620192E-04
       5.2402063E-04
       0.0000000E+00
       3.7199998E-03
       4.8637700E-03
       7.6383662E-03
       3.0206752E-03
       2.2063190E-03
       1.1189223E-03
       4.6867955E-03
       7.9996423E-03
       2.7927535E-03
       6.3618344E-04
       1.0087423E-03
       4.4685232E-04
       0.0000000E+00
       2.8373919E-04
       2.5961838E-03
       3.7030625E-03
       2.2788653E-03
       7.6876825E-04
       7.1767210E-04
       0.0000000E+00
       1.1407220E-02
       7.4569035E-03
       2.2360611E-03
       1.5538218E-03
       5.5599079E-03
       4.0905430E-03
       4.0794084E-03
       7.2535909E-03
       4.6789876E-03
       5.9297802E-03
       5.1363349E-03
       6.4856440E-03
       4.1411831E-03
       2.5242784E-03
       6.4615549E-05
       0.0000000E+00
       2.6123029E-04
       1.8265275E-03
       2.1831434E-03
       1.8692418E-04
       0.0000000E+00
       1.3811285E-04
       2.1778347E-03
       2.7131049E-03
       1.2677346E-03
       4.9316261E-04
       1.0823221E-03
       2.0165232E-03
       1.6664260E-03
       5.5310631E-04
       0.0000000E+00
       1.5291686E-04
       2.3422053E-04
       4.0703719E-03
       3.4456619E-03
       4.4420177E-03
       5.9076840E-03
       3.0527753E-03
       4.8710846E-03
       4.7697839E-03
       0.0000000E+00
       6.2702115E-04
       0.0000000E+00
       8.6704624E-04
       6.1689549E-03
       4.5273363E-03
       4.4103284E-03
       7.7837327E-03
       5.6954189E-03
       6.0127514E-03
       4.0641302E-03
       6.1259027E-03
       5.4216325E-03
       4.0069781E-03
       1.8189732E-03
       0.0000000E+00
       2.7726741E-04
       0.0000000E+00
       1.8823628E-03
       2.4927448E-03
       6.2251113E-04
       4.0300701E-04
       0.0000000E+00
       7.4637472E-04
       8.4688046E-04
       0.0000000E+00
       5.4531079E-04
       0.0000000E+00
       3.0211011E-03
       2.1158468E-03
       0.0000000E+00
       1.5485186E-03
       2.3810078E-03
       2.8642678E-03
       7.9704617E-03
       4.2442675E-03
       3.6721677E-03
       6.1388067E-03
       6.1511857E-03
       3.1783810E-03
       6.2828540E-03
       8.7756785E-03
       5.3823170E-03
       2.9666383E-03
       2.0376217E-03
       6.8223161E-03
       1.1284018E-03
       4.0606104E-03
       2.8743654E-03
       6.0570542E-03
       2.5632163E-03
       2.9837902E-03
       3.1336352E-03
       5.9399591E-04
       1.4383518E-03
       1.5058085E-03
       3.4907588E-03
       6.9656466E-03
       6.7047502E-03
       0.0000000E+00
       3.1947186E-04
       0.0000000E+00
       1.0751761E-03
       1.7022007E-03
       1.3065659E-03
       1.9629756E-03
       1.2093480E-03
       7.8964228E-04
       7.1237323E-03
       4.8969764E-03
       4.9923294E-03
       4.6371046E-03
       5.7620138E-03
       3.3774032E-03
       5.7547278E-03
       3.7281610E-03
       7.1902476E-03
       4.3574830E-03
       1.0455522E-02
       8.4994809E-03
       2.8069364E-03
       5.4290358E-03
       5.5073492E-03
       5.8506075E-03
       4.1242311E-03
       3.1741227E-03
       9.1335216E-03
       6.9954335E-03
       1.1132210E-02
       8.3654257E-04
       5.9211141E-03
       5.8549948E-03
       2.4699072E-03
       6.6054397E-03
       6.6817533E-03
       3.3926481E-03
       4.5121429E-03
       2.1562685E-03
       7.9966066E-03
       1.9769046E-03
       5.7145934E-03
       1.0152285E-02
       3.1385212E-03
       6.8674228E-03
       8.4069961E-03
       0.0000000E+00
       8.0744735E-03
       5.6760965E-03
       3.4176439E-03
       4.0077238E-03
       6.1635305E-03
       7.3814753E-03
       1.3015817E-03
       0.0000000E+00
       4.4125617E-03
       4.3740547E-03
