# vtk DataFile Version 3.0
# Solution du M1 TR
ASCII
DATASET UNSTRUCTURED_GRID
POINTS    153  float
0.0000000E+00  0.0000000E+00  0.0000000E+00
0.0000000E+00  0.1000000E+01  0.0000000E+00
0.1000000E+01  0.1000000E+01  0.0000000E+00
0.1000000E+01  0.0000000E+00  0.0000000E+00
0.5000000E+00  0.5000000E+00  0.0000000E+00
0.0000000E+00  0.5000000E+00  0.0000000E+00
0.5000000E+00  0.0000000E+00  0.0000000E+00
0.2500000E+00  0.5000000E+00  0.0000000E+00
0.2500000E+00  0.9687500E+00  0.0000000E+00
0.5000000E+00  0.1000000E+01  0.0000000E+00
0.0000000E+00  0.2500000E+00  0.0000000E+00
0.3750000E+00  0.2500000E+00  0.0000000E+00
0.2500000E+00  0.3125000E-01  0.0000000E+00
0.1250000E+00  0.7500000E+00  0.0000000E+00
0.3911638E+00  0.7429957E+00  0.0000000E+00
0.1000000E+01  0.5000000E+00  0.0000000E+00
0.7500000E+00  0.0000000E+00  0.0000000E+00
0.6562500E+00  0.2656250E+00  0.0000000E+00
0.7500000E+00  0.4973958E+00  0.0000000E+00
0.8723823E+00  0.7500000E+00  0.0000000E+00
0.7500000E+00  0.9700452E+00  0.0000000E+00
0.6322989E+00  0.7103680E+00  0.0000000E+00
0.9186790E+00  0.2500000E+00  0.0000000E+00
0.6241122E+00  0.4134706E+00  0.0000000E+00
0.8850551E+00  0.9011034E+00  0.0000000E+00
0.8750000E+00  0.9756571E-01  0.0000000E+00
0.1000000E+01  0.7500000E+00  0.0000000E+00
0.7926728E+00  0.3452888E+00  0.0000000E+00
0.3854167E+00  0.9895833E-01  0.0000000E+00
0.2599627E+00  0.8179678E+00  0.0000000E+00
0.3750000E+00  0.4062500E+00  0.0000000E+00
0.1145833E+00  0.9010417E+00  0.0000000E+00
0.0000000E+00  0.7500000E+00  0.0000000E+00
0.1250000E+00  0.5937500E+00  0.0000000E+00
0.6250000E+00  0.1052390E+00  0.0000000E+00
0.7376584E+00  0.8191260E+00  0.0000000E+00
0.1760417E+00  0.1989583E+00  0.0000000E+00
0.1250000E+00  0.3750000E+00  0.0000000E+00
0.7663311E+00  0.6454318E+00  0.0000000E+00
0.5266793E+00  0.8371547E+00  0.0000000E+00
0.5008484E+00  0.6462514E+00  0.0000000E+00
0.6257190E+00  0.5677212E+00  0.0000000E+00
0.1875000E+00  0.5468750E+00  0.0000000E+00
0.1250000E+00  0.4843750E+00  0.0000000E+00
0.1875000E+00  0.4375000E+00  0.0000000E+00
0.6250000E-01  0.5468750E+00  0.0000000E+00
0.6250000E-01  0.4375000E+00  0.0000000E+00
0.2500000E+00  0.1000000E+01  0.0000000E+00
0.1250000E+00  0.9843750E+00  0.0000000E+00
0.3750000E+00  0.9843750E+00  0.0000000E+00
0.6875000E+00  0.5261949E-01  0.0000000E+00
0.8125000E+00  0.4878285E-01  0.0000000E+00
0.7500000E+00  0.1014023E+00  0.0000000E+00
0.6250000E-01  0.6718750E+00  0.0000000E+00
0.0000000E+00  0.6250000E+00  0.0000000E+00
0.3802083E+00  0.1744792E+00  0.0000000E+00
0.5052083E+00  0.1020987E+00  0.0000000E+00
0.5000000E+00  0.1776195E+00  0.0000000E+00
0.2500000E+00  0.3125000E+00  0.0000000E+00
0.3750000E+00  0.3281250E+00  0.0000000E+00
0.2500000E+00  0.3906250E+00  0.0000000E+00
0.3750000E+00  0.5000000E+00  0.0000000E+00
0.5004242E+00  0.5731257E+00  0.0000000E+00
0.3754242E+00  0.5731257E+00  0.0000000E+00
0.8802083E-01  0.9947917E-01  0.0000000E+00
0.1250000E+00  0.1562500E-01  0.0000000E+00
0.2130208E+00  0.1151042E+00  0.0000000E+00
0.5729167E-01  0.9505208E+00  0.0000000E+00
0.1822917E+00  0.9348958E+00  0.0000000E+00
0.2580819E+00  0.6683728E+00  0.0000000E+00
0.3255632E+00  0.7804817E+00  0.0000000E+00
0.1924813E+00  0.7058589E+00  0.0000000E+00
0.5632837E+00  0.6069863E+00  0.0000000E+00
0.5628595E+00  0.5338606E+00  0.0000000E+00
0.3933210E+00  0.8275612E+00  0.0000000E+00
0.4589215E+00  0.7900752E+00  0.0000000E+00
0.2755208E+00  0.2244792E+00  0.0000000E+00
0.1505208E+00  0.2869792E+00  0.0000000E+00
0.3125000E+00  0.4531250E+00  0.0000000E+00
0.4375000E+00  0.4531250E+00  0.0000000E+00
0.2500000E+00  0.0000000E+00  0.0000000E+00
0.3750000E+00  0.1562500E-01  0.0000000E+00
0.4427083E+00  0.4947917E-01  0.0000000E+00
0.3177083E+00  0.6510417E-01  0.0000000E+00
0.4995561E+00  0.3317353E+00  0.0000000E+00
0.4995561E+00  0.4098603E+00  0.0000000E+00
0.6878595E+00  0.5325585E+00  0.0000000E+00
0.7581656E+00  0.5714138E+00  0.0000000E+00
0.6960251E+00  0.6065765E+00  0.0000000E+00
0.5133396E+00  0.9185774E+00  0.0000000E+00
0.3799813E+00  0.9089839E+00  0.0000000E+00
0.9361911E+00  0.6250000E+00  0.0000000E+00
0.8193567E+00  0.6977159E+00  0.0000000E+00
0.8831656E+00  0.5727159E+00  0.0000000E+00
0.8968395E+00  0.1737829E+00  0.0000000E+00
0.9375000E+00  0.4878285E-01  0.0000000E+00
0.9593395E+00  0.1250000E+00  0.0000000E+00
0.6406250E+00  0.1854320E+00  0.0000000E+00
0.7656250E+00  0.1815954E+00  0.0000000E+00
0.7083925E+00  0.3793797E+00  0.0000000E+00
0.7713364E+00  0.4213423E+00  0.0000000E+00
0.6870561E+00  0.4554332E+00  0.0000000E+00
0.1000000E+01  0.8750000E+00  0.0000000E+00
0.9425276E+00  0.9505517E+00  0.0000000E+00
0.9425276E+00  0.8255517E+00  0.0000000E+00
0.6249156E+00  0.4905959E+00  0.0000000E+00
0.8750000E+00  0.9850226E+00  0.0000000E+00
0.8175276E+00  0.9355743E+00  0.0000000E+00
0.6383396E+00  0.9035999E+00  0.0000000E+00
0.6250000E+00  0.9850226E+00  0.0000000E+00
0.7500000E+00  0.1000000E+01  0.0000000E+00
0.4460061E+00  0.6946235E+00  0.0000000E+00
0.5137638E+00  0.7417030E+00  0.0000000E+00
0.6993150E+00  0.6778999E+00  0.0000000E+00
0.6290090E+00  0.6390446E+00  0.0000000E+00
0.8050203E+00  0.7845630E+00  0.0000000E+00
0.8787187E+00  0.8255517E+00  0.0000000E+00
0.8113568E+00  0.8601147E+00  0.0000000E+00
0.1000000E+01  0.2500000E+00  0.0000000E+00
0.9593395E+00  0.3750000E+00  0.0000000E+00
0.8963364E+00  0.4226444E+00  0.0000000E+00
0.8750000E+00  0.4986979E+00  0.0000000E+00
0.5665737E+00  0.6783097E+00  0.0000000E+00
0.5794891E+00  0.7737614E+00  0.0000000E+00
0.3205819E+00  0.6214978E+00  0.0000000E+00
0.5620561E+00  0.4567353E+00  0.0000000E+00
0.6849787E+00  0.7647470E+00  0.0000000E+00
0.6321689E+00  0.8281403E+00  0.0000000E+00
0.2549813E+00  0.8933589E+00  0.0000000E+00
0.7519948E+00  0.7322789E+00  0.0000000E+00
0.7438292E+00  0.8945856E+00  0.0000000E+00
0.6250000E-01  0.3125000E+00  0.0000000E+00
0.8802083E-01  0.2244792E+00  0.0000000E+00
0.0000000E+00  0.3750000E+00  0.0000000E+00
0.0000000E+00  0.1250000E+00  0.0000000E+00
0.2807292E+00  0.1489583E+00  0.0000000E+00
0.1250000E+00  0.6718750E+00  0.0000000E+00
0.6250000E-01  0.7500000E+00  0.0000000E+00
0.5156250E+00  0.2578125E+00  0.0000000E+00
0.6250000E+00  0.0000000E+00  0.0000000E+00
0.5625000E+00  0.5261949E-01  0.0000000E+00
0.5729167E-01  0.8255208E+00  0.0000000E+00
0.1197917E+00  0.8255208E+00  0.0000000E+00
0.0000000E+00  0.8750000E+00  0.0000000E+00
0.1872730E+00  0.8595047E+00  0.0000000E+00
0.1924813E+00  0.7839839E+00  0.0000000E+00
0.6401811E+00  0.3395478E+00  0.0000000E+00
0.8556759E+00  0.2976444E+00  0.0000000E+00
0.8338364E+00  0.2214273E+00  0.0000000E+00
0.8750000E+00  0.0000000E+00  0.0000000E+00
0.7244614E+00  0.3054569E+00  0.0000000E+00
0.1000000E+01  0.6250000E+00  0.0000000E+00
0.9361911E+00  0.7500000E+00  0.0000000E+00
CELLS      70    490
3       7      33      37      43      44      42
3      37      33       5      45      46      43
3       9       1       8      48      49      47
3      34      16      25      51      52      50
3       5      33      32      53      54      45
3      11      28      34      56      57      55
3      37      11      30      59      60      58
3       7       4      40      62      63      61
3      36       0      12      65      66      64
3       1      31       8      68      48      67
3      33      14      29      70      71      69
3      41      40       4      62      73      72
3      39      29      14      70      75      74
3      36      11      37      58      77      76
3       4       7      30      78      79      61
3       0       6      12      81      65      80
3       6      28      12      83      81      82
3      11      23      30      85      59      84
3      41      18      38      87      88      86
3      39       9      29      90      74      89
3      15      19      38      92      93      91
3      22      25       3      95      96      94
3      17      34      25      52      98      97
3      23      27      18     100     101      99
3      26       2      24     103     104     102
3      23      18      41      86     105     101
3       2      20      24     107     103     106
3      39      20       9     109      89     108
3       2       9      20     109     106     110
3      39      14      40     111     112      75
3      38      21      41     114      88     113
3      35      19      24     116     117     115
3       3      15      22     119      96     118
3      27      15      18     121     100     120
3      39      40      21     122     123     112
3       7      40      14     111     124      63
3      40      41      21     114     122      72
3      23      41       4      73     125     105
3      39      21      35     126     127     123
3      29       9       8      49     128      90
3      15      38      18      87     121      93
3      35      38      19      92     115     129
3      39      35      20     130     108     127
3      38      35      21     126     113     129
3      36      37      10     131     132      77
3       5      10      37     131      46     133
3       0      36      10     132     134      64
3      36      12      28      83     135      66
3      14      33       7      42     124      69
3      32      33      13     136     137      53
3      11      34      17      97     138      57
3       6      16      34      50     140     139
3      31      32      13     137     142     141
3      32      31       1      67     143     141
3      29      31      13     142     145     144
3      31      29       8     128      68     144
3      33      29      13     145     136      71
3      37      30       7      78      44      60
3      23      11      17     138     146      84
3      34      28       6      82     140      56
3      36      28      11      55      76     135
3      25      22      27     147     148      94
3      16       3      25      95      51     149
3      25      27      17     150      98     148
3      15      27      22     147     119     120
3      19      15      26     151     152      91
3      30      23       4     125      79      85
3      27      23      17     146     150      99
3      35      24      20     107     130     117
3      26      24      19     116     152     104
CELL_TYPES      70
5
5
5
5
5
5
5
5
5
5
5
5
5
5
5
5
5
5
5
5
5
5
5
5
5
5
5
5
5
5
5
5
5
5
5
5
5
5
5
5
5
5
5
5
5
5
5
5
5
5
5
5
5
5
5
5
5
5
5
5
5
5
5
5
5
5
5
5
5
5
POINT_DATA     153
SCALARS hauteur float
LOOKUP_TABLE DEFAULT
       0.0000000E+00
       0.0000000E+00
       0.0000000E+00
       0.0000000E+00
       2.6247357E-02
       0.0000000E+00
       0.0000000E+00
       1.6238832E-02
       1.2360859E-02
       0.0000000E+00
       0.0000000E+00
       1.4672795E-02
       1.4835103E-02
       2.0441083E-02
       2.1959606E-02
       0.0000000E+00
       0.0000000E+00
       2.3948230E-02
       4.7590985E-02
       8.9778771E-03
       1.1912899E-02
       3.0507169E-02
       6.6286768E-03
       1.1627929E-02
       1.5879917E-02
       8.2935951E-03
       0.0000000E+00
       1.3989874E-02
       3.4373722E-02
       1.1170728E-02
       2.0890017E-02
       5.4408576E-03
       0.0000000E+00
       1.6445792E-02
       1.0113325E-02
       6.4440818E-03
       4.6038561E-03
       1.4583175E-02
       2.6921897E-02
       9.5915983E-03
       3.7527493E-02
       1.2251461E-02
       1.6837884E-02
       1.7034780E-02
       1.1251853E-02
       9.8907793E-03
       5.9223203E-03
       0.0000000E+00
       3.1999253E-03
       6.6382549E-03
       3.4648159E-03
       6.0405004E-03
       1.4755629E-02
       6.3205409E-03
       0.0000000E+00
       2.0230595E-02
       2.1062805E-02
       9.7603189E-03
       1.2870982E-02
       1.6370391E-02
       1.5364928E-02
       1.6040079E-02
       2.9768162E-02
       2.3421777E-02
       2.2115398E-03
       7.3909910E-03
       8.0185355E-03
       1.9485769E-03
       6.7432327E-03
       1.7001453E-02
       1.7663079E-02
       1.0269872E-02
       1.9254405E-02
       1.7661680E-02
       7.0477621E-03
       1.2830206E-02
       7.8233354E-03
       8.1651095E-03
       2.3235892E-02
       1.9520734E-02
       0.0000000E+00
       4.0126152E-03
       1.6628729E-02
       1.7307187E-02
       9.7343136E-03
       1.6172287E-02
       2.5666597E-02
       2.7999804E-02
       1.4929135E-02
       3.2194941E-03
       5.8577757E-03
       1.0996806E-03
       1.4300902E-02
       1.1288250E-02
       6.3030284E-03
       4.0407581E-03
       3.0412418E-03
       1.5235222E-02
       1.1849409E-02
       9.5795619E-03
       2.6153967E-02
       2.5107874E-02
       0.0000000E+00
       6.0223773E-03
       7.5093541E-03
       8.8527986E-03
       5.7380336E-03
       1.1061495E-02
       7.2830577E-03
       3.8676620E-03
       0.0000000E+00
       2.7229770E-02
       1.9774606E-02
       2.3000496E-02
       3.1400439E-02
       6.0232446E-03
       1.0530017E-02
       8.8633045E-03
       0.0000000E+00
       2.0495160E-03
       5.8360602E-03
       2.2060433E-02
       2.7346961E-02
       1.6719673E-02
       1.6060210E-02
       1.9986663E-02
       2.1513778E-02
       6.5140661E-03
       9.9357978E-03
       1.2516729E-02
       9.4281752E-03
       6.1603720E-03
       1.7233731E-03
       0.0000000E+00
       0.0000000E+00
       1.7070230E-02
       1.4650400E-02
       8.9434464E-03
       1.8718074E-02
       0.0000000E+00
       3.6259885E-03
       2.1826785E-03
       1.3025806E-02
       0.0000000E+00
       6.1702464E-03
       1.6276790E-02
       1.6136612E-02
       9.6776444E-03
       8.6040910E-03
       0.0000000E+00
       1.6766807E-02
       0.0000000E+00
       3.4487840E-03
