# vtk DataFile Version 3.0
# Solution du M1 TR
ASCII
DATASET UNSTRUCTURED_GRID
POINTS     79  float
0.0000000E+00  0.0000000E+00  0.0000000E+00
0.0000000E+00  0.1000000E+01  0.0000000E+00
0.1000000E+01  0.1000000E+01  0.0000000E+00
0.1000000E+01  0.0000000E+00  0.0000000E+00
0.5000000E+00  0.5000000E+00  0.0000000E+00
0.0000000E+00  0.5000000E+00  0.0000000E+00
0.5000000E+00  0.0000000E+00  0.0000000E+00
0.2500000E+00  0.5000000E+00  0.0000000E+00
0.2500000E+00  0.9687500E+00  0.0000000E+00
0.5000000E+00  0.1000000E+01  0.0000000E+00
0.0000000E+00  0.2500000E+00  0.0000000E+00
0.3750000E+00  0.2500000E+00  0.0000000E+00
0.2500000E+00  0.3125000E-01  0.0000000E+00
0.1250000E+00  0.7500000E+00  0.0000000E+00
0.3911638E+00  0.7429957E+00  0.0000000E+00
0.1000000E+01  0.5000000E+00  0.0000000E+00
0.7500000E+00  0.0000000E+00  0.0000000E+00
0.6562500E+00  0.2656250E+00  0.0000000E+00
0.7500000E+00  0.4973958E+00  0.0000000E+00
0.8723823E+00  0.7500000E+00  0.0000000E+00
0.7500000E+00  0.9700452E+00  0.0000000E+00
0.6322989E+00  0.7103680E+00  0.0000000E+00
0.9186790E+00  0.2500000E+00  0.0000000E+00
0.1250000E+00  0.3750000E+00  0.0000000E+00
0.1250000E+00  0.5000000E+00  0.0000000E+00
0.0000000E+00  0.3750000E+00  0.0000000E+00
0.1875000E+00  0.6250000E+00  0.0000000E+00
0.6250000E-01  0.6250000E+00  0.0000000E+00
0.2500000E+00  0.1000000E+01  0.0000000E+00
0.1250000E+00  0.9843750E+00  0.0000000E+00
0.3750000E+00  0.9843750E+00  0.0000000E+00
0.5781250E+00  0.1328125E+00  0.0000000E+00
0.6250000E+00  0.0000000E+00  0.0000000E+00
0.7031250E+00  0.1328125E+00  0.0000000E+00
0.0000000E+00  0.7500000E+00  0.0000000E+00
0.6250000E-01  0.8750000E+00  0.0000000E+00
0.5156250E+00  0.2578125E+00  0.0000000E+00
0.4375000E+00  0.1250000E+00  0.0000000E+00
0.1875000E+00  0.2500000E+00  0.0000000E+00
0.3125000E+00  0.3750000E+00  0.0000000E+00
0.3205819E+00  0.6214978E+00  0.0000000E+00
0.3750000E+00  0.5000000E+00  0.0000000E+00
0.4455819E+00  0.6214978E+00  0.0000000E+00
0.1250000E+00  0.1406250E+00  0.0000000E+00
0.0000000E+00  0.1250000E+00  0.0000000E+00
0.1250000E+00  0.1562500E-01  0.0000000E+00
0.1875000E+00  0.8593750E+00  0.0000000E+00
0.2580819E+00  0.7464978E+00  0.0000000E+00
0.5661495E+00  0.6051840E+00  0.0000000E+00
0.5117314E+00  0.7266819E+00  0.0000000E+00
0.3205819E+00  0.8558728E+00  0.0000000E+00
0.3125000E+00  0.1406250E+00  0.0000000E+00
0.4375000E+00  0.3750000E+00  0.0000000E+00
0.2500000E+00  0.0000000E+00  0.0000000E+00
0.3750000E+00  0.1562500E-01  0.0000000E+00
0.5781250E+00  0.3828125E+00  0.0000000E+00
0.6250000E+00  0.4986979E+00  0.0000000E+00
0.6911495E+00  0.6038819E+00  0.0000000E+00
0.4455819E+00  0.8714978E+00  0.0000000E+00
0.8750000E+00  0.4986979E+00  0.0000000E+00
0.9361911E+00  0.6250000E+00  0.0000000E+00
0.8111911E+00  0.6236979E+00  0.0000000E+00
0.8343395E+00  0.1250000E+00  0.0000000E+00
0.8750000E+00  0.0000000E+00  0.0000000E+00
0.9593395E+00  0.1250000E+00  0.0000000E+00
0.7874645E+00  0.2578125E+00  0.0000000E+00
0.7031250E+00  0.3815104E+00  0.0000000E+00
0.8343395E+00  0.3736979E+00  0.0000000E+00
0.1000000E+01  0.7500000E+00  0.0000000E+00
0.9361911E+00  0.8750000E+00  0.0000000E+00
0.8750000E+00  0.9850226E+00  0.0000000E+00
0.8111911E+00  0.8600226E+00  0.0000000E+00
0.5661495E+00  0.8551840E+00  0.0000000E+00
0.6911495E+00  0.8402066E+00  0.0000000E+00
0.6250000E+00  0.9850226E+00  0.0000000E+00
0.7500000E+00  0.1000000E+01  0.0000000E+00
0.7523406E+00  0.7301840E+00  0.0000000E+00
0.1000000E+01  0.2500000E+00  0.0000000E+00
0.9593395E+00  0.3750000E+00  0.0000000E+00
CELLS      34    238
3      10       7       5      24      25      23
3       5       7      13      26      27      24
3       9       1       8      29      30      28
3      17       6      16      32      33      31
3       1       5      13      27      35      34
3       6      17      11      36      37      31
3       7      10      11      38      39      23
3      14       7       4      41      42      40
3      12      10       0      44      45      43
3       1      13       8      46      29      35
3      14      13       7      26      40      47
3       4      21      14      49      42      48
3      14       8      13      46      47      50
3      11      10      12      43      51      38
3       4       7      11      39      52      41
3       0       6      12      54      45      53
3       6      11      12      51      54      37
3      17       4      11      52      36      55
3      21       4      18      56      57      48
3       9       8      14      50      58      30
3      18      15      19      60      61      59
3      22      16       3      63      64      62
3      16      22      17      65      33      62
3      18      17      22      65      67      66
3      19      15       2      68      69      60
3       4      17      18      66      56      55
3       2      20      19      71      69      70
3       9      21      20      73      74      72
3       2       9      20      74      70      75
3      21       9      14      58      49      72
3      18      19      21      76      57      61
3      20      21      19      76      71      73
3       3      15      22      78      64      77
3      18      22      15      78      59      67
CELL_TYPES      34
5
5
5
5
5
5
5
5
5
5
5
5
5
5
5
5
5
5
5
5
5
5
5
5
5
5
5
5
5
5
5
5
5
5
POINT_DATA      79
SCALARS hauteur float
LOOKUP_TABLE DEFAULT
       0.0000000E+00
       0.0000000E+00
       0.0000000E+00
       0.0000000E+00
       2.0696256E-02
       0.0000000E+00
       0.0000000E+00
       4.5628863E-02
       2.2698017E-02
       0.0000000E+00
       0.0000000E+00
       4.7969862E-02
       3.6670448E-03
       6.3475603E-02
       1.8600864E-02
       0.0000000E+00
       0.0000000E+00
       2.2368397E-02
       1.3853863E-02
       1.2411512E-02
       1.4565395E-02
       2.5057651E-02
       1.2065747E-02
       1.6099328E-02
       1.9199272E-02
       0.0000000E+00
       4.2850152E-02
       2.1993005E-02
       0.0000000E+00
       6.4956607E-03
       1.1043668E-02
       9.1750505E-03
       0.0000000E+00
       9.5501960E-03
       0.0000000E+00
       2.9668758E-02
       2.7242350E-02
       2.1685284E-02
       2.7751876E-02
       3.9361175E-02
       2.6308676E-02
       2.9569280E-02
       1.5438023E-02
       1.7778988E-02
       0.0000000E+00
       1.6873606E-03
       3.5293320E-02
       3.3994224E-02
       1.7904782E-02
       2.1034761E-02
       1.6138047E-02
       1.8438941E-02
       3.1407626E-02
       0.0000000E+00
       1.0579350E-03
       1.6777368E-02
       1.8854399E-02
       1.5505426E-02
       1.4247045E-02
       4.8004301E-03
       4.4827049E-03
       1.0037964E-02
       4.9966838E-03
       0.0000000E+00
       5.1540298E-03
       1.6187960E-02
       1.9076733E-02
       9.6837743E-03
       0.0000000E+00
       2.8549191E-03
       7.0956695E-03
       1.0140637E-02
       1.0006076E-02
       1.5536820E-02
       4.2984658E-03
       0.0000000E+00
       2.0828971E-02
       0.0000000E+00
       5.6861567E-03
