# vtk DataFile Version 3.0
# Solution du M1 TR
ASCII
DATASET UNSTRUCTURED_GRID
POINTS    148  float
0.0000000E+00  0.0000000E+00  0.0000000E+00
0.0000000E+00  0.1000000E+01  0.0000000E+00
0.1000000E+01  0.1000000E+01  0.0000000E+00
0.1000000E+01  0.0000000E+00  0.0000000E+00
0.5000000E+00  0.5000000E+00  0.0000000E+00
0.0000000E+00  0.5000000E+00  0.0000000E+00
0.5000000E+00  0.0000000E+00  0.0000000E+00
0.2500000E+00  0.5000000E+00  0.0000000E+00
0.2500000E+00  0.9687500E+00  0.0000000E+00
0.5000000E+00  0.1000000E+01  0.0000000E+00
0.0000000E+00  0.2500000E+00  0.0000000E+00
0.3750000E+00  0.2500000E+00  0.0000000E+00
0.2500000E+00  0.3125000E-01  0.0000000E+00
0.1250000E+00  0.7500000E+00  0.0000000E+00
0.3911638E+00  0.7429957E+00  0.0000000E+00
0.1000000E+01  0.5000000E+00  0.0000000E+00
0.7500000E+00  0.0000000E+00  0.0000000E+00
0.6562500E+00  0.2656250E+00  0.0000000E+00
0.7500000E+00  0.4973958E+00  0.0000000E+00
0.8723823E+00  0.7500000E+00  0.0000000E+00
0.7500000E+00  0.9700452E+00  0.0000000E+00
0.6322989E+00  0.7103680E+00  0.0000000E+00
0.9186790E+00  0.2500000E+00  0.0000000E+00
0.5008484E+00  0.6462514E+00  0.0000000E+00
0.6257190E+00  0.5677212E+00  0.0000000E+00
0.5266793E+00  0.8371547E+00  0.0000000E+00
0.7663311E+00  0.6454318E+00  0.0000000E+00
0.7376584E+00  0.8191260E+00  0.0000000E+00
0.1250000E+00  0.3750000E+00  0.0000000E+00
0.1760417E+00  0.1989583E+00  0.0000000E+00
0.1250000E+00  0.5937500E+00  0.0000000E+00
0.6250000E+00  0.1052390E+00  0.0000000E+00
0.0000000E+00  0.7500000E+00  0.0000000E+00
0.1145833E+00  0.9010417E+00  0.0000000E+00
0.2599627E+00  0.8179678E+00  0.0000000E+00
0.3750000E+00  0.4062500E+00  0.0000000E+00
0.3854167E+00  0.9895833E-01  0.0000000E+00
0.8750000E+00  0.9756571E-01  0.0000000E+00
0.7926728E+00  0.3452888E+00  0.0000000E+00
0.1000000E+01  0.7500000E+00  0.0000000E+00
0.6241122E+00  0.4134706E+00  0.0000000E+00
0.8850551E+00  0.9011034E+00  0.0000000E+00
0.3750000E+00  0.5738533E+00  0.0000000E+00
0.9361911E+00  0.6250000E+00  0.0000000E+00
0.8748313E+00  0.5148913E+00  0.0000000E+00
0.1406250E+00  0.4843750E+00  0.0000000E+00
0.7508108E+00  0.1278183E+00  0.0000000E+00
0.3906250E-02  0.6250000E+00  0.0000000E+00
0.5030887E+00  0.1829537E+00  0.0000000E+00
0.2578125E+00  0.3281250E+00  0.0000000E+00
0.3882478E+00  0.8980833E+00  0.0000000E+00
0.1000000E+01  0.8750000E+00  0.0000000E+00
0.6191150E+00  0.9359067E+00  0.0000000E+00
0.6312034E+00  0.8168420E+00  0.0000000E+00
0.2783119E+00  0.1438971E+00  0.0000000E+00
0.6250000E+00  0.0000000E+00  0.0000000E+00
0.0000000E+00  0.8750000E+00  0.0000000E+00
0.8750000E+00  0.0000000E+00  0.0000000E+00
0.9230908E+00  0.3867911E+00  0.0000000E+00
0.8046824E+00  0.2302127E+00  0.0000000E+00
0.5303440E+00  0.3156721E+00  0.0000000E+00
0.4762698E+00  0.4014320E+00  0.0000000E+00
0.1178133E+00  0.7311825E-01  0.0000000E+00
0.7237960E-01  0.1705329E+00  0.0000000E+00
0.1020690E+00  0.2729310E+00  0.0000000E+00
0.0000000E+00  0.3750000E+00  0.0000000E+00
0.1000000E+01  0.2500000E+00  0.0000000E+00
0.9969894E+00  0.1250000E+00  0.0000000E+00
0.2566406E+00  0.6672397E+00  0.0000000E+00
0.1861416E+00  0.2830309E+00  0.0000000E+00
0.2658988E+00  0.2357703E+00  0.0000000E+00
0.3956900E-01  0.3125000E+00  0.0000000E+00
0.9375000E+00  0.4878285E-01  0.0000000E+00
0.8125000E+00  0.4878285E-01  0.0000000E+00
0.5478384E+00  0.4363424E+00  0.0000000E+00
0.4380560E+00  0.3174094E+00  0.0000000E+00
0.4519794E+00  0.2411886E+00  0.0000000E+00
0.1875000E+00  0.5468750E+00  0.0000000E+00
0.6445312E-01  0.4394531E+00  0.0000000E+00
0.2002065E+00  0.1036461E+00  0.0000000E+00
0.8750000E+00  0.1000000E+01  0.0000000E+00
0.7500000E+00  0.1000000E+01  0.0000000E+00
0.8221702E+00  0.9446692E+00  0.0000000E+00
0.9375000E+00  0.9563951E+00  0.0000000E+00
0.2599106E-01  0.8959510E-01  0.0000000E+00
0.6875000E+00  0.5261949E-01  0.0000000E+00
0.7224151E-01  0.8222415E+00  0.0000000E+00
0.8524368E+00  0.2933612E+00  0.0000000E+00
0.7211336E+00  0.2088007E+00  0.0000000E+00
0.7340614E+00  0.2890171E+00  0.0000000E+00
0.6429465E+00  0.1849796E+00  0.0000000E+00
0.7069791E+00  0.3758855E+00  0.0000000E+00
0.7459677E-01  0.5307460E+00  0.0000000E+00
0.8719553E+00  0.1809132E+00  0.0000000E+00
0.9274068E+00  0.8214683E+00  0.0000000E+00
0.5877997E+00  0.8725813E+00  0.0000000E+00
0.6830520E+00  0.8822521E+00  0.0000000E+00
0.3750000E+00  0.0000000E+00  0.0000000E+00
0.2500000E+00  0.0000000E+00  0.0000000E+00
0.4375000E+00  0.4344846E-01  0.0000000E+00
0.3224826E+00  0.5555556E-01  0.0000000E+00
0.3533462E+00  0.1726266E+00  0.0000000E+00
0.5625000E+00  0.5261949E-01  0.0000000E+00
0.1250000E+00  0.1000000E+01  0.0000000E+00
0.2500000E+00  0.1000000E+01  0.0000000E+00
0.6250000E-01  0.9565515E+00  0.0000000E+00
0.1775174E+00  0.9444444E+00  0.0000000E+00
0.2842371E+00  0.4154412E+00  0.0000000E+00
0.2055377E+00  0.3916016E+00  0.0000000E+00
0.4590292E+00  0.5733658E+00  0.0000000E+00
0.5424884E+00  0.5739198E+00  0.0000000E+00
0.5827105E+00  0.6452264E+00  0.0000000E+00
0.4098050E+00  0.4900516E+00  0.0000000E+00
0.3306035E+00  0.5062857E+00  0.0000000E+00
0.2866293E+00  0.5835493E+00  0.0000000E+00
0.7126852E+00  0.5764312E+00  0.0000000E+00
0.6867445E+00  0.6519537E+00  0.0000000E+00
0.7331323E+00  0.7291651E+00  0.0000000E+00
0.8071726E+00  0.7100728E+00  0.0000000E+00
0.1000000E+01  0.6250000E+00  0.0000000E+00
0.6638849E+00  0.4901900E+00  0.0000000E+00
0.4903282E+00  0.7448741E+00  0.0000000E+00
0.5699048E+00  0.7629687E+00  0.0000000E+00
0.1000000E+01  0.3750000E+00  0.0000000E+00
0.8381824E+00  0.4279440E+00  0.0000000E+00
0.7637566E+00  0.4241543E+00  0.0000000E+00
0.8473113E+00  0.6023785E+00  0.0000000E+00
0.8765666E+00  0.6733497E+00  0.0000000E+00
0.6250000E-01  0.6893921E+00  0.0000000E+00
0.9321698E+00  0.4633520E+00  0.0000000E+00
0.4116682E+00  0.6556927E+00  0.0000000E+00
0.3358283E+00  0.6839399E+00  0.0000000E+00
0.9424053E+00  0.5493859E+00  0.0000000E+00
0.6101384E+00  0.3330173E+00  0.0000000E+00
0.3424479E+00  0.3281250E+00  0.0000000E+00
0.6250000E+00  0.1000000E+01  0.0000000E+00
0.5722362E+00  0.2379112E+00  0.0000000E+00
0.1250000E+00  0.0000000E+00  0.0000000E+00
0.4961093E+00  0.1010641E+00  0.0000000E+00
0.2128157E+00  0.7436063E+00  0.0000000E+00
0.1634524E+00  0.6718750E+00  0.0000000E+00
0.4371347E+00  0.8214313E+00  0.0000000E+00
0.4772928E+00  0.9126717E+00  0.0000000E+00
0.8282243E+00  0.8297866E+00  0.0000000E+00
0.3001743E+00  0.8963449E+00  0.0000000E+00
0.1698254E+00  0.8289714E+00  0.0000000E+00
0.3480054E+00  0.8197554E+00  0.0000000E+00
0.3750000E+00  0.1000000E+01  0.0000000E+00
CELLS     265   1060
3      77      30      45
3      45      78      28
3       1     105     103
3      16      73      46
3      92      47       5
3      36      99     138
3     134     107      49
3     109      42     112
3     137      79      62
3      56     105       1
3     139      68     131
3     116     111      24
3     141      25     142
3      29      70      69
3     112       4     109
3       6      99      97
3     100      97      36
3      76      60      75
3     120     115      24
3     142      50     141
3      39      43     119
3      37      72      67
3      55      85      31
3     120      91     125
3      83      51       2
3      91     120      40
3      41      83      80
3     142      95      52
3       9      52     135
3     141     121      25
3      24     115     116
3     118     143      27
3     129     123      15
3     124      58     129
3      21      53     122
3     113     107      35
3     122     111      21
3     110      74      24
3     122      25     121
3     144      34     146
3     126      26     115
3     118      27     117
3      52      95      96
3      21     116     117
3      29      54      70
3      10      64      71
3      84      62      63
3      79      29      62
3      42     114     113
3      47     128      32
3      76     101      48
3      16      85      55
3     106     103      33
3      86      32      13
3     145      13     139
3     144     106      34
3     140      68     139
3      28      69     108
3      76     136      60
3      31     138     102
3      70      11     134
3      87      59      93
3      57      72      37
3      59      38      89
3     129      15     132
3      39      19     127
3       4     112      61
3      17      89      91
3      82      27     143
3      94      39      51
3     130      42     109
3     139     131      34
3     118      26     127
3     126      18      44
3      18     125     124
3     132      44     129
3      78      92       5
3      45      28     108
3      93      59      46
3      46      88      90
3      30     140     128
3      32       5      47
3      90      48      31
3     136     133      60
3      28      64      69
3     134      49      70
3     147     104       8
3     146      34     131
3      94      41     143
3      95      53      96
3     135      20      81
3     117      53      21
3      53      27      96
3      54      79      12
3      70     101      11
3      31     102      55
3      56      86      33
3      73      16      57
3      87      58      38
3     123      22      66
3      59      89      88
3      93      46      37
3      61      74       4
3      60      61      75
3      35     134      75
3      60     133      74
3      63      62      29
3      12     137      98
3      64      63      29
3      84       0     137
3      71      28      65
3      63      64      10
3      78      65      28
3      22      93      67
3       3      66      67
3      22      67      66
3      68     140      77
3     131     114      42
3      69      49     108
3      64      29      69
3      70      54     101
3      49      69      70
3      28      71      64
3      65      10      71
3       3      67      72
3      57       3      72
3      37      46      73
3      57      37      73
3      60      74      61
3      74      40     120
3      35      75      61
3      76      75      11
3      76      11     101
3      76      48     136
3     114      77       7
3      45       7      77
3      92      78      45
3      65      78       5
3     100      98      97
3      29      79      54
3      27      82      20
3      81      20      82
3      82      80      81
3      41      80      82
3      51      83      41
3       2      80      83
3      63      10      84
3      10       0      84
3      16      46      85
3      46      31      85
3      32      86      56
3     145      86      13
3      58      87      22
3      38      59      87
3      90      88      17
3      46      59      88
3      91      89      38
3      17      88      89
3     133     136      17
3      46      90      31
3      38     124     125
3      91      40     133
3      45      30      92
3      47      92      30
3      67      93      37
3      87      93      22
3      39      94      19
3      51      41      94
3     142      52       9
3      25      53      95
3      27      20      96
3      20      52      96
3       6     102     138
3      12     100      54
3      12      79     137
3      36      97      99
3      54     100      36
3      98     100      12
3      54      36     101
3     101      36      48
3     138      31      48
3       6      55     102
3     106     104     103
3      33     105      56
3       8     144     147
3      33     103     105
3     106      33     145
3     104     106       8
3     113      35     112
3       7      45     108
3      49     107     108
3     108     107       7
3       4      74     110
3     130     109      23
3      23     109     110
3       4     110     109
3      23     110     111
3      24     111     110
3     113     112      42
3      61     112      35
3     130     131      42
3     107     113       7
3      77     114      68
3       7     113     114
3     126     115      18
3     116     115      26
3     117     116      26
3     116      21     111
3     118     117      26
3     117      27      53
3      26     126     127
3     118      19     143
3     132     119      43
3     115     120      18
3      74     120      24
3     130     121      14
3      23     111     122
3      25     122      53
3     122     121      23
3      22     123      58
3      18     124      44
3      38      58     124
3     120     125      18
3      38     125      91
3     132     126      44
3     126      43     127
3      39     127      43
3     118     127      19
3      30     128      47
3      13      32     128
3     124     129      44
3     123     129      58
3     121     130      23
3     131     130      14
3     131      14     146
3     114     131      68
3     119     132      15
3     126     132      43
3      91     133      17
3      74     133      40
3      75     134      11
3     107     134      35
3      20     135      52
3      48      90     136
3      17     136      90
3      84     137      62
3      36     138      48
3       6     138      99
3     145     139      34
3     140     139      13
3     128     140      13
3     140      30      77
3     146     141      50
3     121     141      14
3      95     142      25
3     147     142       9
3      94     143      19
3      82     143      41
3     147     144      50
3     106     144       8
3     106     145      34
3      86     145      33
3     141     146      14
3     144     146      50
3     142     147      50
CELL_TYPES     265
5
5
5
5
5
5
5
5
5
5
5
5
5
5
5
5
5
5
5
5
5
5
5
5
5
5
5
5
5
5
5
5
5
5
5
5
5
5
5
5
5
5
5
5
5
5
5
5
5
5
5
5
5
5
5
5
5
5
5
5
5
5
5
5
5
5
5
5
5
5
5
5
5
5
5
5
5
5
5
5
5
5
5
5
5
5
5
5
5
5
5
5
5
5
5
5
5
5
5
5
5
5
5
5
5
5
5
5
5
5
5
5
5
5
5
5
5
5
5
5
5
5
5
5
5
5
5
5
5
5
5
5
5
5
5
5
5
5
5
5
5
5
5
5
5
5
5
5
5
5
5
5
5
5
5
5
5
5
5
5
5
5
5
5
5
5
5
5
5
5
5
5
5
5
5
5
5
5
5
5
5
5
5
5
5
5
5
5
5
5
5
5
5
5
5
5
5
5
5
5
5
5
5
5
5
5
5
5
5
5
5
5
5
5
5
5
5
5
5
5
5
5
5
5
5
5
5
5
5
5
5
5
5
5
5
5
5
5
5
5
5
5
5
5
5
5
5
5
5
5
5
5
5
5
5
5
5
5
5
5
5
5
5
5
5
POINT_DATA     148
SCALARS hauteur float
LOOKUP_TABLE DEFAULT
       0.0000000E+00
      -0.0000000E+00
       0.0000000E+00
      -0.0000000E+00
       6.2500000E-02
       0.0000000E+00
       0.0000000E+00
       4.6875000E-02
       5.6762695E-03
      -0.0000000E+00
       0.0000000E+00
       4.3945312E-02
       5.6762695E-03
       2.0507812E-02
       4.5476373E-02
      -0.0000000E+00
       0.0000000E+00
       4.4004679E-02
       4.6873728E-02
       2.0874646E-02
       5.4482902E-03
       4.7835161E-02
       1.4007734E-02
       5.7152470E-02
       5.7474630E-02
       3.3984639E-02
       4.0979576E-02
       2.8671428E-02
       2.5634766E-02
       2.3117345E-02
       2.6382446E-02
       2.2069624E-02
       0.0000000E+00
       9.0462043E-03
       2.8645021E-02
       5.6533813E-02
       2.1120710E-02
       9.6301012E-03
       3.7152024E-02
      -0.0000000E+00
       5.6892541E-02
       9.0660002E-03
       5.7315397E-02
       1.4000928E-02
       2.7351089E-02
       3.0182898E-02
       2.0857383E-02
       9.1195107E-04
       3.7368981E-02
       4.2183772E-02
       2.1739347E-02
      -0.0000000E+00
       1.4145232E-02
       3.4827337E-02
       2.4743396E-02
       0.0000000E+00
       0.0000000E+00
       0.0000000E+00
       1.6838674E-02
       2.7852605E-02
       5.3806901E-02
       5.9935776E-02
       7.0437691E-03
       9.4971595E-03
       1.8187178E-02
       0.0000000E+00
      -0.0000000E+00
       3.2828889E-04
       4.2358205E-02
       3.0741602E-02
       3.5171049E-02
       8.1647699E-03
       2.7189308E-03
       7.0692202E-03
       6.0924072E-02
       5.3333827E-02
       4.5332130E-02
       3.7751198E-02
       1.4853679E-02
       1.4876083E-02
      -0.0000000E+00
      -0.0000000E+00
       7.6421065E-03
       2.4435636E-03
       2.0649324E-03
       1.0710106E-02
       9.7960617E-03
       2.6075963E-02
       3.3222306E-02
       4.0114048E-02
       3.4609913E-02
       4.8598739E-02
       1.7192767E-02
       1.6544588E-02
       9.8735293E-03
       2.6938701E-02
       2.2489907E-02
       0.0000000E+00
       0.0000000E+00
       1.0227827E-02
       1.1463855E-02
       3.2634842E-02
       1.2267940E-02
      -0.0000000E+00
      -0.0000000E+00
       2.4351970E-03
       7.6607534E-03
       4.9406915E-02
       3.8904270E-02
       6.0743748E-02
       6.0692513E-02
       5.5661349E-02
       6.0442279E-02
       5.5317460E-02
       4.9690911E-02
       4.9995075E-02
       4.8814370E-02
       3.8637486E-02
       3.2042547E-02
      -0.0000000E+00
       5.5763957E-02
       4.7491394E-02
       4.4328128E-02
      -0.0000000E+00
       3.3203957E-02
       4.4070168E-02
       3.0987698E-02
       2.3798053E-02
       1.2546717E-02
       1.5722385E-02
       5.4678456E-02
       4.8215343E-02
       1.3437010E-02
       5.2834815E-02
       4.9642368E-02
      -0.0000000E+00
       4.4381286E-02
       0.0000000E+00
       2.2711167E-02
       3.1939675E-02
       3.0144620E-02
       3.6090790E-02
       1.9884414E-02
       2.0094156E-02
       1.9517723E-02
       1.9988507E-02
       3.3525591E-02
      -0.0000000E+00
