# vtk DataFile Version 3.0
# Solution du M1 TR
ASCII
DATASET UNSTRUCTURED_GRID
POINTS    255  float
0.0000000E+00  0.0000000E+00  0.0000000E+00
0.0000000E+00  0.1000000E+01  0.0000000E+00
0.1000000E+01  0.1000000E+01  0.0000000E+00
0.1000000E+01  0.0000000E+00  0.0000000E+00
0.5000000E+00  0.5000000E+00  0.0000000E+00
0.0000000E+00  0.5000000E+00  0.0000000E+00
0.5000000E+00  0.0000000E+00  0.0000000E+00
0.2500000E+00  0.5000000E+00  0.0000000E+00
0.2500000E+00  0.9687500E+00  0.0000000E+00
0.5000000E+00  0.1000000E+01  0.0000000E+00
0.0000000E+00  0.2500000E+00  0.0000000E+00
0.3750000E+00  0.2500000E+00  0.0000000E+00
0.2500000E+00  0.3125000E-01  0.0000000E+00
0.1250000E+00  0.7500000E+00  0.0000000E+00
0.3911638E+00  0.7429957E+00  0.0000000E+00
0.1000000E+01  0.5000000E+00  0.0000000E+00
0.7500000E+00  0.0000000E+00  0.0000000E+00
0.6562500E+00  0.2656250E+00  0.0000000E+00
0.7500000E+00  0.4973958E+00  0.0000000E+00
0.8723823E+00  0.7500000E+00  0.0000000E+00
0.7500000E+00  0.9700452E+00  0.0000000E+00
0.6322989E+00  0.7103680E+00  0.0000000E+00
0.9186790E+00  0.2500000E+00  0.0000000E+00
0.6241122E+00  0.4134706E+00  0.0000000E+00
0.8850551E+00  0.9011034E+00  0.0000000E+00
0.8750000E+00  0.9756571E-01  0.0000000E+00
0.1000000E+01  0.7500000E+00  0.0000000E+00
0.7926728E+00  0.3452888E+00  0.0000000E+00
0.3854167E+00  0.9895833E-01  0.0000000E+00
0.2599627E+00  0.8179678E+00  0.0000000E+00
0.3750000E+00  0.4062500E+00  0.0000000E+00
0.1145833E+00  0.9010417E+00  0.0000000E+00
0.0000000E+00  0.7500000E+00  0.0000000E+00
0.1250000E+00  0.5937500E+00  0.0000000E+00
0.6250000E+00  0.1052390E+00  0.0000000E+00
0.7376584E+00  0.8191260E+00  0.0000000E+00
0.1760417E+00  0.1989583E+00  0.0000000E+00
0.1250000E+00  0.3750000E+00  0.0000000E+00
0.7663311E+00  0.6454318E+00  0.0000000E+00
0.5266793E+00  0.8371547E+00  0.0000000E+00
0.5008484E+00  0.6462514E+00  0.0000000E+00
0.6257190E+00  0.5677212E+00  0.0000000E+00
0.2566406E+00  0.6672397E+00  0.0000000E+00
0.9969894E+00  0.1250000E+00  0.0000000E+00
0.1000000E+01  0.2500000E+00  0.0000000E+00
0.0000000E+00  0.3750000E+00  0.0000000E+00
0.1020690E+00  0.2729310E+00  0.0000000E+00
0.7237960E-01  0.1705329E+00  0.0000000E+00
0.1178133E+00  0.7311825E-01  0.0000000E+00
0.4762698E+00  0.4014320E+00  0.0000000E+00
0.5303440E+00  0.3156721E+00  0.0000000E+00
0.8046824E+00  0.2302127E+00  0.0000000E+00
0.9230908E+00  0.3867911E+00  0.0000000E+00
0.8750000E+00  0.0000000E+00  0.0000000E+00
0.0000000E+00  0.8750000E+00  0.0000000E+00
0.2783119E+00  0.1438971E+00  0.0000000E+00
0.6250000E+00  0.0000000E+00  0.0000000E+00
0.6191150E+00  0.9359067E+00  0.0000000E+00
0.6312034E+00  0.8168420E+00  0.0000000E+00
0.1000000E+01  0.8750000E+00  0.0000000E+00
0.2578125E+00  0.3281250E+00  0.0000000E+00
0.3882478E+00  0.8980833E+00  0.0000000E+00
0.5030887E+00  0.1829537E+00  0.0000000E+00
0.3906250E-02  0.6250000E+00  0.0000000E+00
0.7508108E+00  0.1278183E+00  0.0000000E+00
0.1406250E+00  0.4843750E+00  0.0000000E+00
0.8748313E+00  0.5148913E+00  0.0000000E+00
0.9361911E+00  0.6250000E+00  0.0000000E+00
0.3750000E+00  0.5738533E+00  0.0000000E+00
0.1875000E+00  0.5468750E+00  0.0000000E+00
0.1328125E+00  0.5390625E+00  0.0000000E+00
0.1953125E+00  0.4921875E+00  0.0000000E+00
0.7031250E-01  0.4921875E+00  0.0000000E+00
0.6250000E-01  0.4375000E+00  0.0000000E+00
0.1328125E+00  0.4296875E+00  0.0000000E+00
0.2500000E+00  0.1000000E+01  0.0000000E+00
0.1250000E+00  0.9843750E+00  0.0000000E+00
0.3750000E+00  0.9843750E+00  0.0000000E+00
0.8125000E+00  0.4878285E-01  0.0000000E+00
0.8129054E+00  0.1126920E+00  0.0000000E+00
0.7504054E+00  0.6390916E-01  0.0000000E+00
0.6250000E-01  0.5468750E+00  0.0000000E+00
0.6445312E-01  0.6093750E+00  0.0000000E+00
0.1953125E-02  0.5625000E+00  0.0000000E+00
0.5015444E+00  0.9147684E-01  0.0000000E+00
0.4442527E+00  0.1409560E+00  0.0000000E+00
0.4427083E+00  0.4947917E-01  0.0000000E+00
0.3164062E+00  0.3671875E+00  0.0000000E+00
0.3125000E+00  0.4531250E+00  0.0000000E+00
0.2539062E+00  0.4140625E+00  0.0000000E+00
0.5004242E+00  0.5731257E+00  0.0000000E+00
0.4379242E+00  0.6100523E+00  0.0000000E+00
0.4375000E+00  0.5369266E+00  0.0000000E+00
0.1839067E+00  0.5218413E-01  0.0000000E+00
0.2641559E+00  0.8757355E-01  0.0000000E+00
0.1980626E+00  0.1085077E+00  0.0000000E+00
0.5729167E-01  0.9505208E+00  0.0000000E+00
0.1822917E+00  0.9348958E+00  0.0000000E+00
0.1924813E+00  0.7839839E+00  0.0000000E+00
0.1908203E+00  0.7086199E+00  0.0000000E+00
0.2583016E+00  0.7426037E+00  0.0000000E+00
0.5632837E+00  0.6069863E+00  0.0000000E+00
0.5628595E+00  0.5338606E+00  0.0000000E+00
0.3897058E+00  0.8205395E+00  0.0000000E+00
0.4589215E+00  0.7900752E+00  0.0000000E+00
0.4574635E+00  0.8676190E+00  0.0000000E+00
0.2169271E+00  0.2635417E+00  0.0000000E+00
0.2271768E+00  0.1714277E+00  0.0000000E+00
0.2680622E+00  0.2360111E+00  0.0000000E+00
0.3750000E+00  0.4900516E+00  0.0000000E+00
0.4375000E+00  0.4531250E+00  0.0000000E+00
0.2500000E+00  0.0000000E+00  0.0000000E+00
0.3750000E+00  0.1562500E-01  0.0000000E+00
0.1250000E+00  0.1562500E-01  0.0000000E+00
0.3177083E+00  0.6510417E-01  0.0000000E+00
0.4526720E+00  0.2828361E+00  0.0000000E+00
0.4390444E+00  0.2164768E+00  0.0000000E+00
0.5167164E+00  0.2493129E+00  0.0000000E+00
0.6878595E+00  0.5325585E+00  0.0000000E+00
0.7581656E+00  0.5714138E+00  0.0000000E+00
0.6960251E+00  0.6065765E+00  0.0000000E+00
0.5133396E+00  0.9185774E+00  0.0000000E+00
0.4441239E+00  0.9490417E+00  0.0000000E+00
0.9680956E+00  0.6875000E+00  0.0000000E+00
0.9680956E+00  0.5625000E+00  0.0000000E+00
0.1000000E+01  0.6250000E+00  0.0000000E+00
0.9375000E+00  0.4878285E-01  0.0000000E+00
0.9984947E+00  0.6250000E-01  0.0000000E+00
0.9359947E+00  0.1112829E+00  0.0000000E+00
0.6875000E+00  0.5261949E-01  0.0000000E+00
0.6879054E+00  0.1165286E+00  0.0000000E+00
0.7083925E+00  0.3793797E+00  0.0000000E+00
0.7713364E+00  0.4213423E+00  0.0000000E+00
0.6870561E+00  0.4554332E+00  0.0000000E+00
0.1000000E+01  0.9375000E+00  0.0000000E+00
0.9425276E+00  0.9505517E+00  0.0000000E+00
0.9425276E+00  0.8880517E+00  0.0000000E+00
0.6249156E+00  0.4905959E+00  0.0000000E+00
0.8750000E+00  0.9850226E+00  0.0000000E+00
0.8175276E+00  0.9355743E+00  0.0000000E+00
0.5728971E+00  0.8865307E+00  0.0000000E+00
0.5595575E+00  0.9679534E+00  0.0000000E+00
0.7500000E+00  0.1000000E+01  0.0000000E+00
0.6250000E+00  0.9850226E+00  0.0000000E+00
0.4460061E+00  0.6946235E+00  0.0000000E+00
0.5137638E+00  0.7417030E+00  0.0000000E+00
0.6993150E+00  0.6778999E+00  0.0000000E+00
0.6290090E+00  0.6390446E+00  0.0000000E+00
0.8050203E+00  0.7845630E+00  0.0000000E+00
0.8787187E+00  0.8255517E+00  0.0000000E+00
0.8113568E+00  0.8601147E+00  0.0000000E+00
0.9615454E+00  0.4433956E+00  0.0000000E+00
0.9615454E+00  0.3183956E+00  0.0000000E+00
0.1000000E+01  0.3750000E+00  0.0000000E+00
0.8337521E+00  0.4300901E+00  0.0000000E+00
0.8578818E+00  0.3660400E+00  0.0000000E+00
0.8989610E+00  0.4508412E+00  0.0000000E+00
0.5665737E+00  0.6783097E+00  0.0000000E+00
0.5794891E+00  0.7737614E+00  0.0000000E+00
0.3125000E+00  0.5369266E+00  0.0000000E+00
0.5620561E+00  0.4567353E+00  0.0000000E+00
0.6317511E+00  0.7636050E+00  0.0000000E+00
0.5789413E+00  0.8269983E+00  0.0000000E+00
0.3191239E+00  0.9334167E+00  0.0000000E+00
0.2549813E+00  0.8933589E+00  0.0000000E+00
0.3241052E+00  0.8580255E+00  0.0000000E+00
0.8205812E+00  0.5801616E+00  0.0000000E+00
0.9055112E+00  0.5699457E+00  0.0000000E+00
0.8512611E+00  0.6352159E+00  0.0000000E+00
0.7519948E+00  0.7322789E+00  0.0000000E+00
0.8193567E+00  0.6977159E+00  0.0000000E+00
0.7438292E+00  0.8945856E+00  0.0000000E+00
0.6845575E+00  0.9529760E+00  0.0000000E+00
0.6783867E+00  0.8775164E+00  0.0000000E+00
0.6849787E+00  0.7647470E+00  0.0000000E+00
0.1799407E+00  0.3005280E+00  0.0000000E+00
0.1390553E+00  0.2359447E+00  0.0000000E+00
0.5103450E-01  0.2614655E+00  0.0000000E+00
0.5103450E-01  0.3239655E+00  0.0000000E+00
0.0000000E+00  0.3125000E+00  0.0000000E+00
0.3618980E-01  0.8526643E-01  0.0000000E+00
0.5890667E-01  0.3655913E-01  0.0000000E+00
0.9509647E-01  0.1218256E+00  0.0000000E+00
0.1469275E+00  0.1360383E+00  0.0000000E+00
0.3158203E+00  0.6205465E+00  0.0000000E+00
0.2533203E+00  0.5836199E+00  0.0000000E+00
0.6445312E-01  0.6875000E+00  0.0000000E+00
0.6250000E-01  0.7500000E+00  0.0000000E+00
0.1953125E-02  0.6875000E+00  0.0000000E+00
0.3802083E+00  0.1744792E+00  0.0000000E+00
0.6875000E+00  0.0000000E+00  0.0000000E+00
0.6250000E+00  0.5261949E-01  0.0000000E+00
0.6250000E-01  0.8125000E+00  0.0000000E+00
0.1197917E+00  0.8255208E+00  0.0000000E+00
0.5729167E-01  0.8880208E+00  0.0000000E+00
0.0000000E+00  0.8125000E+00  0.0000000E+00
0.1872730E+00  0.8595047E+00  0.0000000E+00
0.1250000E+00  0.6718750E+00  0.0000000E+00
0.1908203E+00  0.6304949E+00  0.0000000E+00
0.1875000E+00  0.4375000E+00  0.0000000E+00
0.1914062E+00  0.3515625E+00  0.0000000E+00
0.5932970E+00  0.2906486E+00  0.0000000E+00
0.5796694E+00  0.2242893E+00  0.0000000E+00
0.5625000E+00  0.5261949E-01  0.0000000E+00
0.5640444E+00  0.1440963E+00  0.0000000E+00
0.3164062E+00  0.2890625E+00  0.0000000E+00
0.3266559E+00  0.1969486E+00  0.0000000E+00
0.8556759E+00  0.2976444E+00  0.0000000E+00
0.7986776E+00  0.2877507E+00  0.0000000E+00
0.8616807E+00  0.2401063E+00  0.0000000E+00
0.9375000E+00  0.0000000E+00  0.0000000E+00
0.8750000E+00  0.4878285E-01  0.0000000E+00
0.7035304E+00  0.1967217E+00  0.0000000E+00
0.7777466E+00  0.1790155E+00  0.0000000E+00
0.7304662E+00  0.2479188E+00  0.0000000E+00
0.9374157E+00  0.5074457E+00  0.0000000E+00
0.9361911E+00  0.7500000E+00  0.0000000E+00
0.9042867E+00  0.6875000E+00  0.0000000E+00
0.4881349E+00  0.4507160E+00  0.0000000E+00
0.4256349E+00  0.4038410E+00  0.0000000E+00
0.6401811E+00  0.3395478E+00  0.0000000E+00
0.7244614E+00  0.3054569E+00  0.0000000E+00
0.9361911E+00  0.8125000E+00  0.0000000E+00
0.1000000E+01  0.8125000E+00  0.0000000E+00
0.3830819E+00  0.6584245E+00  0.0000000E+00
0.3255632E+00  0.7804817E+00  0.0000000E+00
0.3239022E+00  0.7051177E+00  0.0000000E+00
0.8124157E+00  0.5061436E+00  0.0000000E+00
0.8968395E+00  0.1737829E+00  0.0000000E+00
0.8398412E+00  0.1638892E+00  0.0000000E+00
0.6406250E+00  0.1854320E+00  0.0000000E+00
0.0000000E+00  0.6250000E+00  0.0000000E+00
0.5772281E+00  0.3645714E+00  0.0000000E+00
0.1135345E+00  0.3239655E+00  0.0000000E+00
0.3750000E+00  0.3281250E+00  0.0000000E+00
0.6251592E+00  0.8763744E+00  0.0000000E+00
0.6844309E+00  0.8179840E+00  0.0000000E+00
0.3318643E+00  0.1214277E+00  0.0000000E+00
0.5625000E+00  0.0000000E+00  0.0000000E+00
0.0000000E+00  0.9375000E+00  0.0000000E+00
0.8125000E+00  0.0000000E+00  0.0000000E+00
0.9208849E+00  0.3183956E+00  0.0000000E+00
0.9593395E+00  0.2500000E+00  0.0000000E+00
0.5501910E+00  0.4074513E+00  0.0000000E+00
0.5033069E+00  0.3585520E+00  0.0000000E+00
0.4256349E+00  0.3257160E+00  0.0000000E+00
0.1242106E+00  0.1847456E+00  0.0000000E+00
0.8722430E-01  0.2217319E+00  0.0000000E+00
0.3618980E-01  0.2102664E+00  0.0000000E+00
0.0000000E+00  0.1250000E+00  0.0000000E+00
0.6250000E-01  0.3750000E+00  0.0000000E+00
0.0000000E+00  0.4375000E+00  0.0000000E+00
0.9578342E+00  0.1875000E+00  0.0000000E+00
0.1000000E+01  0.1250000E+00  0.0000000E+00
0.9984947E+00  0.1875000E+00  0.0000000E+00
CELLS     118    826
3       7      33      65      70      71      69
3      65       5      37      73      74      72
3       9       1       8      76      77      75
3      16      25      64      79      80      78
3       5      33      63      82      83      81
3       6      62      28      85      86      84
3      60      30       7      88      89      87
3       4      40      68      91      92      90
3      48      12      55      94      95      93
3       1      31       8      97      76      96
3      29      13      42      99     100      98
3      41      40       4      90     102     101
3      61      14      39     104     105     103
3      60      36      55     107     108     106
3      68      30       4     110      92     109
3       0       6      12     112     113     111
3       6      28      12     114     112      86
3      50      11      62     116     117     115
3      41      18      38     119     120     118
3      39       9      61     122     105     121
3      26      67      15     124     125     123
3      25       3      43     127     128     126
3      34      16      64      80     130     129
3      23      27      18     132     133     131
3      59       2      24     135     136     134
3      23      18      41     118     137     133
3       2      20      24     139     135     138
3      39      57       9     141     121     140
3       2       9      20     143     138     142
3      39      14      40     144     145     104
3      38      21      41     147     120     146
3      35      19      24     149     150     148
3      15      52      44     152     153     151
3      66      27      52     155     156     154
3      39      40      21     157     158     145
3      68       7      30      88     109     159
3      40      41      21     147     157     101
3      23      41       4     102     160     137
3      39      21      58     161     162     158
3      61       8      29     164     165     163
3      38      66      67     167     168     166
3      35      38      19     170     148     169
3      35      20      57     172     173     171
3      38      35      21     174     146     169
3      60      46      36     176     106     175
3      10      46      45     178     179     177
3      47       0      48     181     182     180
3      48      55      36     107     183      95
3       7      68      42     184     185     159
3      63      13      32     187     188     186
3      28      62      11     116     189      85
3      56      16      34     129     191     190
3      54      13      31     193     194     192
3      13      54      32     195     187     192
3      29      31      13     193      98     196
3      31      29       8     164      97     196
3      42      13      33     197     198      99
3      60       7      37     199     200      89
3      17      50      62     117     202     201
3      62       6      34     203     204      84
3      11      60      55     108     206     205
3      22      27      51     208     209     207
3      53       3      25     126     211     210
3      17      64      51     213     214     212
3      66      52      15     151     215     156
3      67      26      19     216     217     123
3      49       4      30     110     219     218
3      27      23      17     220     221     131
3      35      24      20     139     171     150
3      59      19      26     216     223     222
3      40      14      68     224      91     144
3      14      29      42     100     226     225
3      19      38      67     168     217     170
3      66      38      18     119     227     166
3      27      66      18     227     132     154
3      15      67      66     167     215     124
3       5      65      33      70      81      72
3      37       7      65      71      74     199
3      25      22      51     209     229     228
3      17      34      64     130     212     230
3      13      63      33      82     197     186
3      32       5      63      83     188     231
3      34      17      62     202     204     230
3      50      17      23     220     232     201
3      60      37      46     233     175     200
3      11      30      60      87     205     234
3       8      61       9     122      77     163
3      14      61      29     165     225     103
3      19      59      24     136     149     222
3      57      39      58     162     235     140
3      20       9      57     141     172     143
3      21      35      58     236     161     174
3      57      58      35     236     173     235
3      12      28      55     237      94     114
3      11      55      28     237     189     206
3      34       6      56     238     191     203
3      31       1      54     239     194      96
3      25      16      53     240     211      78
3      27      22      52     241     155     207
3      44      52      22     241     242     152
3      17      51      27     208     221     214
3      25      51      64     213      79     229
3      49      23       4     160     218     243
3      50      49      11     245     115     244
3      11      49      30     219     234     245
3      23      49      50     244     232     243
3      47      48      36     183     246     182
3       0      12      48      93     181     113
3      46      47      36     246     176     247
3       0      47      10     248     249     180
3      45      46      37     233     250     178
3      47      46      10     177     248     247
3      37       5      45     251     250      73
3      43      22      25     228     128     252
3       3      44      43     254     127     253
3      22      43      44     254     242     252
3       7      42      33     198      69     185
3      14      42      68     184     224     226
CELL_TYPES     118
5
5
5
5
5
5
5
5
5
5
5
5
5
5
5
5
5
5
5
5
5
5
5
5
5
5
5
5
5
5
5
5
5
5
5
5
5
5
5
5
5
5
5
5
5
5
5
5
5
5
5
5
5
5
5
5
5
5
5
5
5
5
5
5
5
5
5
5
5
5
5
5
5
5
5
5
5
5
5
5
5
5
5
5
5
5
5
5
5
5
5
5
5
5
5
5
5
5
5
5
5
5
5
5
5
5
5
5
5
5
5
5
5
5
5
5
5
5
POINT_DATA     255
SCALARS hauteur float
LOOKUP_TABLE DEFAULT
       0.0000000E+00
       0.0000000E+00
       0.0000000E+00
       0.0000000E+00
       1.3667783E-02
       0.0000000E+00
       0.0000000E+00
       9.6628432E-03
       6.8301687E-03
       0.0000000E+00
       0.0000000E+00
       7.6808667E-03
       7.8946132E-03
       5.2281491E-03
       9.1296463E-03
       0.0000000E+00
       0.0000000E+00
       6.6440749E-03
       3.3232752E-02
       6.1851914E-03
       7.6377031E-03
       1.5648387E-02
       4.6317866E-03
       7.0056131E-03
       1.3819593E-02
       2.7976784E-03
       0.0000000E+00
       1.1536832E-02
       1.6741656E-02
       6.7723520E-03
       3.1604053E-02
       3.9281007E-03
       0.0000000E+00
       3.0401072E-02
       3.5120547E-03
       5.2547463E-03
       2.5244934E-02
       2.7315211E-03
       1.1102286E-02
       6.2350815E-03
       1.3447783E-02
       1.1393979E-02
       1.7473908E-02
       3.3986926E-04
       0.0000000E+00
       0.0000000E+00
       7.6005817E-03
       1.7460198E-03
       6.1329087E-03
       9.0223114E-03
       1.0438412E-02
       2.5972731E-02
       1.8835757E-02
       0.0000000E+00
       0.0000000E+00
       3.2145788E-02
       0.0000000E+00
       8.5321540E-03
       1.5137527E-02
       0.0000000E+00
       7.9631021E-03
       6.0843841E-03
       1.3497899E-02
       2.4216317E-03
       2.2377595E-02
       8.8747861E-03
       7.8930274E-03
       7.0604809E-03
       1.5835429E-02
       1.6388562E-02
       1.6541112E-02
       7.5168618E-03
       2.5791322E-03
       3.4202226E-03
       4.3655370E-03
       0.0000000E+00
       1.9001565E-03
       3.3453387E-03
       8.3214639E-04
       9.4875062E-03
       9.6413668E-03
       1.3646791E-02
       1.2789561E-02
       6.2216134E-04
       4.9821974E-03
       1.1136583E-02
       7.5490636E-03
       1.7447680E-02
       2.0671324E-02
       7.1854180E-03
       1.2704534E-02
       1.3823686E-02
       1.1263412E-02
       4.8454965E-03
       1.7271559E-02
       1.6236482E-02
       1.3587813E-03
       4.1265639E-03
       4.4989664E-03
       9.6373654E-03
       1.1373536E-02
       9.5320822E-03
       1.1071029E-02
       5.8785738E-03
       7.3534182E-03
       4.9492462E-03
       1.3982832E-02
       2.3455598E-02
       1.7665493E-02
       1.9029655E-02
       2.3063211E-02
       0.0000000E+00
       2.1696884E-03
       3.8978810E-03
       8.4884385E-03
       6.4844403E-03
       1.4306578E-02
       1.0744607E-02
       1.8886634E-02
       2.0199924E-02
       8.7885833E-03
       2.3098780E-03
       5.4550618E-03
       3.0501768E-03
       2.6546877E-03
       0.0000000E+00
       8.5005185E-04
       1.7810008E-04
       1.3293183E-03
       1.1599663E-03
       1.1888098E-02
       7.4389923E-03
       1.9357038E-02
       1.7210472E-02
       0.0000000E+00
       5.7217116E-03
       6.7148638E-03
       7.2477918E-03
       3.8230044E-03
       8.4581811E-03
       5.8493784E-03
       5.9698852E-03
       0.0000000E+00
       1.9598353E-03
       9.5164008E-03
       8.1225317E-03
       1.0909784E-02
       1.5913817E-02
       4.5481201E-03
       9.3102945E-03
       7.7812506E-03
       9.3581053E-03
       6.7609633E-03
       0.0000000E+00
       7.0333747E-03
       1.3297626E-02
       1.1034292E-02
       1.2512431E-02
       8.9365574E-03
       9.9281082E-03
       1.0083039E-02
       1.2978136E-02
       9.8851407E-03
       5.2277914E-03
       7.5931569E-03
       7.0195118E-03
       7.7213546E-03
       8.2061182E-03
       8.5981512E-03
       6.2653678E-03
       7.7353923E-03
       5.1438922E-03
       7.3111135E-03
       5.4162774E-03
       1.0511661E-02
       5.9239562E-03
       1.4342229E-02
       3.4508514E-03
       3.1483282E-03
       0.0000000E+00
       7.8820030E-04
       2.6165249E-03
       3.5046419E-03
       1.2563663E-02
       1.6837561E-02
       1.0945209E-02
       2.4929629E-03
       2.5965192E-03
       1.2014944E-03
       9.2696428E-03
       0.0000000E+00
       1.3743280E-03
       2.2582358E-03
       5.0181429E-03
       1.6023747E-03
       0.0000000E+00
       4.2714725E-03
       1.8645287E-02
       2.0164254E-02
       7.5325709E-03
       4.0940055E-03
       6.8526415E-03
       8.5691084E-03
       5.0226138E-03
       6.7672223E-03
       6.1652413E-03
       1.6563653E-02
       5.8723488E-03
       1.5607803E-02
       1.2663647E-02
       0.0000000E+00
       1.1363493E-03
       1.2247576E-02
       1.9180813E-02
       1.3918232E-02
       3.1209097E-03
       3.9916841E-03
       5.1084325E-03
       9.6908386E-03
       1.7221130E-02
       1.0784166E-02
       7.0313497E-03
       2.4818926E-03
       0.0000000E+00
       1.3457682E-02
       6.0196573E-03
       1.0711251E-02
       1.8377050E-02
       2.4856671E-03
       1.2593263E-02
       3.9163986E-03
       0.0000000E+00
       7.1558267E-03
       5.8215099E-03
       1.7148027E-02
       9.7261800E-03
       1.2908731E-02
       2.0525406E-02
       0.0000000E+00
       0.0000000E+00
       0.0000000E+00
       1.0878926E-02
       1.8161452E-03
       6.0016259E-03
       8.4198270E-03
       8.9752007E-03
       1.2199255E-02
       3.5205336E-03
       6.0529462E-04
       0.0000000E+00
       1.0227293E-03
       0.0000000E+00
       1.3831146E-03
       0.0000000E+00
       1.4870599E-04
