# vtk DataFile Version 3.0
# Solution du M1 TR
ASCII
DATASET UNSTRUCTURED_GRID
POINTS    153  float
0.0000000E+00  0.0000000E+00  0.0000000E+00
0.0000000E+00  0.1000000E+01  0.0000000E+00
0.1000000E+01  0.1000000E+01  0.0000000E+00
0.1000000E+01  0.0000000E+00  0.0000000E+00
0.5000000E+00  0.5000000E+00  0.0000000E+00
0.0000000E+00  0.5000000E+00  0.0000000E+00
0.5000000E+00  0.0000000E+00  0.0000000E+00
0.2500000E+00  0.5000000E+00  0.0000000E+00
0.2500000E+00  0.9687500E+00  0.0000000E+00
0.5000000E+00  0.1000000E+01  0.0000000E+00
0.0000000E+00  0.2500000E+00  0.0000000E+00
0.3750000E+00  0.2500000E+00  0.0000000E+00
0.2500000E+00  0.3125000E-01  0.0000000E+00
0.1250000E+00  0.7500000E+00  0.0000000E+00
0.3911638E+00  0.7429957E+00  0.0000000E+00
0.1000000E+01  0.5000000E+00  0.0000000E+00
0.7500000E+00  0.0000000E+00  0.0000000E+00
0.6562500E+00  0.2656250E+00  0.0000000E+00
0.7500000E+00  0.4973958E+00  0.0000000E+00
0.8723823E+00  0.7500000E+00  0.0000000E+00
0.7500000E+00  0.9700452E+00  0.0000000E+00
0.6322989E+00  0.7103680E+00  0.0000000E+00
0.9186790E+00  0.2500000E+00  0.0000000E+00
0.6241122E+00  0.4134706E+00  0.0000000E+00
0.8850551E+00  0.9011034E+00  0.0000000E+00
0.8750000E+00  0.9756571E-01  0.0000000E+00
0.1000000E+01  0.7500000E+00  0.0000000E+00
0.7926728E+00  0.3452888E+00  0.0000000E+00
0.3854167E+00  0.9895833E-01  0.0000000E+00
0.2599627E+00  0.8179678E+00  0.0000000E+00
0.3750000E+00  0.4062500E+00  0.0000000E+00
0.1145833E+00  0.9010417E+00  0.0000000E+00
0.0000000E+00  0.7500000E+00  0.0000000E+00
0.1250000E+00  0.5937500E+00  0.0000000E+00
0.6250000E+00  0.1052390E+00  0.0000000E+00
0.7376584E+00  0.8191260E+00  0.0000000E+00
0.1760417E+00  0.1989583E+00  0.0000000E+00
0.1250000E+00  0.3750000E+00  0.0000000E+00
0.7663311E+00  0.6454318E+00  0.0000000E+00
0.5266793E+00  0.8371547E+00  0.0000000E+00
0.5008484E+00  0.6462514E+00  0.0000000E+00
0.6257190E+00  0.5677212E+00  0.0000000E+00
0.1875000E+00  0.5468750E+00  0.0000000E+00
0.1250000E+00  0.4843750E+00  0.0000000E+00
0.1875000E+00  0.4375000E+00  0.0000000E+00
0.6250000E-01  0.5468750E+00  0.0000000E+00
0.6250000E-01  0.4375000E+00  0.0000000E+00
0.2500000E+00  0.1000000E+01  0.0000000E+00
0.1250000E+00  0.9843750E+00  0.0000000E+00
0.3750000E+00  0.9843750E+00  0.0000000E+00
0.6875000E+00  0.5261949E-01  0.0000000E+00
0.8125000E+00  0.4878285E-01  0.0000000E+00
0.7500000E+00  0.1014023E+00  0.0000000E+00
0.6250000E-01  0.6718750E+00  0.0000000E+00
0.0000000E+00  0.6250000E+00  0.0000000E+00
0.3802083E+00  0.1744792E+00  0.0000000E+00
0.5052083E+00  0.1020987E+00  0.0000000E+00
0.5000000E+00  0.1776195E+00  0.0000000E+00
0.2500000E+00  0.3125000E+00  0.0000000E+00
0.3750000E+00  0.3281250E+00  0.0000000E+00
0.2500000E+00  0.3906250E+00  0.0000000E+00
0.3750000E+00  0.5000000E+00  0.0000000E+00
0.5004242E+00  0.5731257E+00  0.0000000E+00
0.3754242E+00  0.5731257E+00  0.0000000E+00
0.8802083E-01  0.9947917E-01  0.0000000E+00
0.1250000E+00  0.1562500E-01  0.0000000E+00
0.2130208E+00  0.1151042E+00  0.0000000E+00
0.5729167E-01  0.9505208E+00  0.0000000E+00
0.1822917E+00  0.9348958E+00  0.0000000E+00
0.2580819E+00  0.6683728E+00  0.0000000E+00
0.3255632E+00  0.7804817E+00  0.0000000E+00
0.1924813E+00  0.7058589E+00  0.0000000E+00
0.5632837E+00  0.6069863E+00  0.0000000E+00
0.5628595E+00  0.5338606E+00  0.0000000E+00
0.3933210E+00  0.8275612E+00  0.0000000E+00
0.4589215E+00  0.7900752E+00  0.0000000E+00
0.2755208E+00  0.2244792E+00  0.0000000E+00
0.1505208E+00  0.2869792E+00  0.0000000E+00
0.3125000E+00  0.4531250E+00  0.0000000E+00
0.4375000E+00  0.4531250E+00  0.0000000E+00
0.2500000E+00  0.0000000E+00  0.0000000E+00
0.3750000E+00  0.1562500E-01  0.0000000E+00
0.4427083E+00  0.4947917E-01  0.0000000E+00
0.3177083E+00  0.6510417E-01  0.0000000E+00
0.4995561E+00  0.3317353E+00  0.0000000E+00
0.4995561E+00  0.4098603E+00  0.0000000E+00
0.6878595E+00  0.5325585E+00  0.0000000E+00
0.7581656E+00  0.5714138E+00  0.0000000E+00
0.6960251E+00  0.6065765E+00  0.0000000E+00
0.5133396E+00  0.9185774E+00  0.0000000E+00
0.3799813E+00  0.9089839E+00  0.0000000E+00
0.9361911E+00  0.6250000E+00  0.0000000E+00
0.8193567E+00  0.6977159E+00  0.0000000E+00
0.8831656E+00  0.5727159E+00  0.0000000E+00
0.8968395E+00  0.1737829E+00  0.0000000E+00
0.9375000E+00  0.4878285E-01  0.0000000E+00
0.9593395E+00  0.1250000E+00  0.0000000E+00
0.6406250E+00  0.1854320E+00  0.0000000E+00
0.7656250E+00  0.1815954E+00  0.0000000E+00
0.7083925E+00  0.3793797E+00  0.0000000E+00
0.7713364E+00  0.4213423E+00  0.0000000E+00
0.6870561E+00  0.4554332E+00  0.0000000E+00
0.1000000E+01  0.8750000E+00  0.0000000E+00
0.9425276E+00  0.9505517E+00  0.0000000E+00
0.9425276E+00  0.8255517E+00  0.0000000E+00
0.6249156E+00  0.4905959E+00  0.0000000E+00
0.8750000E+00  0.9850226E+00  0.0000000E+00
0.8175276E+00  0.9355743E+00  0.0000000E+00
0.6383396E+00  0.9035999E+00  0.0000000E+00
0.6250000E+00  0.9850226E+00  0.0000000E+00
0.7500000E+00  0.1000000E+01  0.0000000E+00
0.4460061E+00  0.6946235E+00  0.0000000E+00
0.5137638E+00  0.7417030E+00  0.0000000E+00
0.6993150E+00  0.6778999E+00  0.0000000E+00
0.6290090E+00  0.6390446E+00  0.0000000E+00
0.8050203E+00  0.7845630E+00  0.0000000E+00
0.8787187E+00  0.8255517E+00  0.0000000E+00
0.8113568E+00  0.8601147E+00  0.0000000E+00
0.1000000E+01  0.2500000E+00  0.0000000E+00
0.9593395E+00  0.3750000E+00  0.0000000E+00
0.8963364E+00  0.4226444E+00  0.0000000E+00
0.8750000E+00  0.4986979E+00  0.0000000E+00
0.5665737E+00  0.6783097E+00  0.0000000E+00
0.5794891E+00  0.7737614E+00  0.0000000E+00
0.3205819E+00  0.6214978E+00  0.0000000E+00
0.5620561E+00  0.4567353E+00  0.0000000E+00
0.6849787E+00  0.7647470E+00  0.0000000E+00
0.6321689E+00  0.8281403E+00  0.0000000E+00
0.2549813E+00  0.8933589E+00  0.0000000E+00
0.7519948E+00  0.7322789E+00  0.0000000E+00
0.7438292E+00  0.8945856E+00  0.0000000E+00
0.6250000E-01  0.3125000E+00  0.0000000E+00
0.8802083E-01  0.2244792E+00  0.0000000E+00
0.0000000E+00  0.3750000E+00  0.0000000E+00
0.0000000E+00  0.1250000E+00  0.0000000E+00
0.2807292E+00  0.1489583E+00  0.0000000E+00
0.1250000E+00  0.6718750E+00  0.0000000E+00
0.6250000E-01  0.7500000E+00  0.0000000E+00
0.5156250E+00  0.2578125E+00  0.0000000E+00
0.6250000E+00  0.0000000E+00  0.0000000E+00
0.5625000E+00  0.5261949E-01  0.0000000E+00
0.5729167E-01  0.8255208E+00  0.0000000E+00
0.1197917E+00  0.8255208E+00  0.0000000E+00
0.0000000E+00  0.8750000E+00  0.0000000E+00
0.1872730E+00  0.8595047E+00  0.0000000E+00
0.1924813E+00  0.7839839E+00  0.0000000E+00
0.6401811E+00  0.3395478E+00  0.0000000E+00
0.8556759E+00  0.2976444E+00  0.0000000E+00
0.8338364E+00  0.2214273E+00  0.0000000E+00
0.8750000E+00  0.0000000E+00  0.0000000E+00
0.7244614E+00  0.3054569E+00  0.0000000E+00
0.1000000E+01  0.6250000E+00  0.0000000E+00
0.9361911E+00  0.7500000E+00  0.0000000E+00
CELLS      70    280
3       7      33      37
3      37      33       5
3       9       1       8
3      34      16      25
3       5      33      32
3      11      28      34
3      37      11      30
3       7       4      40
3      36       0      12
3       1      31       8
3      33      14      29
3      41      40       4
3      39      29      14
3      36      11      37
3       4       7      30
3       0       6      12
3       6      28      12
3      11      23      30
3      41      18      38
3      39       9      29
3      15      19      38
3      22      25       3
3      17      34      25
3      23      27      18
3      26       2      24
3      23      18      41
3       2      20      24
3      39      20       9
3       2       9      20
3      39      14      40
3      38      21      41
3      35      19      24
3       3      15      22
3      27      15      18
3      39      40      21
3       7      40      14
3      40      41      21
3      23      41       4
3      39      21      35
3      29       9       8
3      15      38      18
3      35      38      19
3      39      35      20
3      38      35      21
3      36      37      10
3       5      10      37
3       0      36      10
3      36      12      28
3      14      33       7
3      32      33      13
3      11      34      17
3       6      16      34
3      31      32      13
3      32      31       1
3      29      31      13
3      31      29       8
3      33      29      13
3      37      30       7
3      23      11      17
3      34      28       6
3      36      28      11
3      25      22      27
3      16       3      25
3      25      27      17
3      15      27      22
3      19      15      26
3      30      23       4
3      27      23      17
3      35      24      20
3      26      24      19
CELL_TYPES      70
5
5
5
5
5
5
5
5
5
5
5
5
5
5
5
5
5
5
5
5
5
5
5
5
5
5
5
5
5
5
5
5
5
5
5
5
5
5
5
5
5
5
5
5
5
5
5
5
5
5
5
5
5
5
5
5
5
5
5
5
5
5
5
5
5
5
5
5
5
5
POINT_DATA     153
SCALARS hauteur float
LOOKUP_TABLE DEFAULT
       0.0000000E+00
      -0.0000000E+00
       0.0000000E+00
      -0.0000000E+00
       6.2500000E-02
       0.0000000E+00
       0.0000000E+00
       4.6875000E-02
       5.6762695E-03
      -0.0000000E+00
       0.0000000E+00
       4.3945312E-02
       5.6762695E-03
       2.0507812E-02
       4.5476373E-02
      -0.0000000E+00
       0.0000000E+00
       4.4004679E-02
       4.6873728E-02
       2.0874646E-02
       5.4482902E-03
       4.7835161E-02
       1.4007734E-02
       5.6892541E-02
       9.0660002E-03
       9.6301012E-03
      -0.0000000E+00
       3.7152024E-02
       2.1120710E-02
       2.8645021E-02
       5.6533813E-02
       9.0462043E-03
       0.0000000E+00
       2.6382446E-02
       2.2069624E-02
       2.8671428E-02
       2.3117345E-02
       2.5634766E-02
       4.0979576E-02
       3.3984639E-02
       5.7152470E-02
       5.7474630E-02
       3.7751198E-02
       2.7317047E-02
       3.7490845E-02
       1.4519691E-02
       1.4419556E-02
      -0.0000000E+00
       1.6822815E-03
       3.6048889E-03
       1.0710106E-02
       7.0692202E-03
       1.7084982E-02
       1.2917519E-02
       0.0000000E+00
       3.3942121E-02
       2.2916142E-02
       3.6517701E-02
       4.0283203E-02
       5.1670074E-02
       4.4631958E-02
       5.8593750E-02
       6.1163115E-02
       5.7366363E-02
       7.1911160E-03
       1.6822815E-03
       1.7075307E-02
       2.5401117E-03
       9.0727146E-03
       4.2440686E-02
       3.7619240E-02
       3.2271179E-02
       5.8683117E-02
       6.1230066E-02
       3.4051883E-02
       4.1184221E-02
       3.4749604E-02
       2.6163867E-02
       5.3238869E-02
       6.0982704E-02
       0.0000000E+00
       3.6048889E-03
       1.1603373E-02
       1.3193824E-02
       5.5421706E-02
       6.0468662E-02
       5.3449599E-02
       4.4902560E-02
       5.0490368E-02
       1.8684939E-02
       1.9491333E-02
       1.4000928E-02
       3.1216829E-02
       2.5250440E-02
       1.3284014E-02
       2.7189308E-03
       4.2664162E-03
       3.4774728E-02
       2.6668599E-02
       4.8637664E-02
       4.3002891E-02
       5.3325451E-02
      -0.0000000E+00
       2.5461300E-03
       7.8012574E-03
       5.8578294E-02
       1.6136200E-03
       8.9916024E-03
       2.0109729E-02
       3.4577571E-03
      -0.0000000E+00
       5.2412014E-02
       4.7858616E-02
       4.5913564E-02
       5.3827593E-02
       2.6530429E-02
       1.5348102E-02
       1.8415414E-02
      -0.0000000E+00
       9.1423205E-03
       2.2673355E-02
       2.7343565E-02
       5.3584313E-02
       4.2657590E-02
       5.1237047E-02
       6.1076510E-02
       3.8821288E-02
       3.3094778E-02
       1.8097818E-02
       3.6562407E-02
       1.7969037E-02
       1.2588501E-02
       1.3974617E-02
       0.0000000E+00
       0.0000000E+00
       2.5597386E-02
       2.4112701E-02
       1.0986328E-02
       4.7789589E-02
       0.0000000E+00
       1.2267940E-02
       7.7792982E-03
       1.5187409E-02
       0.0000000E+00
       1.8379339E-02
       2.6322947E-02
       5.1656995E-02
       2.5816831E-02
       2.3886197E-02
       0.0000000E+00
       4.2349359E-02
      -0.0000000E+00
       1.1200743E-02
