# vtk DataFile Version 3.0
# Solution du M1 TR
ASCII
DATASET UNSTRUCTURED_GRID
POINTS   1118  float
0.0000000E+00  0.0000000E+00  0.0000000E+00
0.0000000E+00  0.1000000E+01  0.0000000E+00
0.1000000E+01  0.1000000E+01  0.0000000E+00
0.1000000E+01  0.0000000E+00  0.0000000E+00
0.5000000E+00  0.5000000E+00  0.0000000E+00
0.0000000E+00  0.5000000E+00  0.0000000E+00
0.5000000E+00  0.0000000E+00  0.0000000E+00
0.2500000E+00  0.5000000E+00  0.0000000E+00
0.2500000E+00  0.9687500E+00  0.0000000E+00
0.5000000E+00  0.1000000E+01  0.0000000E+00
0.0000000E+00  0.2500000E+00  0.0000000E+00
0.3750000E+00  0.2500000E+00  0.0000000E+00
0.2500000E+00  0.3125000E-01  0.0000000E+00
0.1250000E+00  0.7500000E+00  0.0000000E+00
0.3911638E+00  0.7429957E+00  0.0000000E+00
0.1000000E+01  0.5000000E+00  0.0000000E+00
0.7500000E+00  0.0000000E+00  0.0000000E+00
0.6562500E+00  0.2656250E+00  0.0000000E+00
0.7500000E+00  0.4973958E+00  0.0000000E+00
0.8723823E+00  0.7500000E+00  0.0000000E+00
0.7500000E+00  0.9700452E+00  0.0000000E+00
0.6322989E+00  0.7103680E+00  0.0000000E+00
0.9186790E+00  0.2500000E+00  0.0000000E+00
0.6241122E+00  0.4134706E+00  0.0000000E+00
0.8850551E+00  0.9011034E+00  0.0000000E+00
0.8750000E+00  0.9756571E-01  0.0000000E+00
0.1000000E+01  0.7500000E+00  0.0000000E+00
0.7926728E+00  0.3452888E+00  0.0000000E+00
0.3854167E+00  0.9895833E-01  0.0000000E+00
0.2599627E+00  0.8179678E+00  0.0000000E+00
0.3750000E+00  0.4062500E+00  0.0000000E+00
0.1145833E+00  0.9010417E+00  0.0000000E+00
0.0000000E+00  0.7500000E+00  0.0000000E+00
0.1250000E+00  0.5937500E+00  0.0000000E+00
0.6250000E+00  0.1052390E+00  0.0000000E+00
0.7376584E+00  0.8191260E+00  0.0000000E+00
0.1760417E+00  0.1989583E+00  0.0000000E+00
0.1250000E+00  0.3750000E+00  0.0000000E+00
0.7663311E+00  0.6454318E+00  0.0000000E+00
0.5266793E+00  0.8371547E+00  0.0000000E+00
0.5008484E+00  0.6462514E+00  0.0000000E+00
0.6257190E+00  0.5677212E+00  0.0000000E+00
0.2566406E+00  0.6672397E+00  0.0000000E+00
0.9969894E+00  0.1250000E+00  0.0000000E+00
0.1000000E+01  0.2500000E+00  0.0000000E+00
0.0000000E+00  0.3750000E+00  0.0000000E+00
0.1020690E+00  0.2729310E+00  0.0000000E+00
0.7237960E-01  0.1705329E+00  0.0000000E+00
0.1178133E+00  0.7311825E-01  0.0000000E+00
0.4762698E+00  0.4014320E+00  0.0000000E+00
0.5303440E+00  0.3156721E+00  0.0000000E+00
0.8046824E+00  0.2302127E+00  0.0000000E+00
0.9230908E+00  0.3867911E+00  0.0000000E+00
0.8750000E+00  0.0000000E+00  0.0000000E+00
0.0000000E+00  0.8750000E+00  0.0000000E+00
0.2783119E+00  0.1438971E+00  0.0000000E+00
0.6250000E+00  0.0000000E+00  0.0000000E+00
0.6191150E+00  0.9359067E+00  0.0000000E+00
0.6312034E+00  0.8168420E+00  0.0000000E+00
0.1000000E+01  0.8750000E+00  0.0000000E+00
0.2578125E+00  0.3281250E+00  0.0000000E+00
0.3882478E+00  0.8980833E+00  0.0000000E+00
0.5030887E+00  0.1829537E+00  0.0000000E+00
0.3906250E-02  0.6250000E+00  0.0000000E+00
0.7508108E+00  0.1278183E+00  0.0000000E+00
0.1406250E+00  0.4843750E+00  0.0000000E+00
0.8748313E+00  0.5148913E+00  0.0000000E+00
0.9361911E+00  0.6250000E+00  0.0000000E+00
0.3750000E+00  0.5738533E+00  0.0000000E+00
0.3750000E+00  0.1000000E+01  0.0000000E+00
0.3001743E+00  0.8963449E+00  0.0000000E+00
0.3480054E+00  0.8197554E+00  0.0000000E+00
0.1698254E+00  0.8289714E+00  0.0000000E+00
0.4371347E+00  0.8214313E+00  0.0000000E+00
0.8282243E+00  0.8297866E+00  0.0000000E+00
0.4772928E+00  0.9126717E+00  0.0000000E+00
0.1634524E+00  0.6718750E+00  0.0000000E+00
0.2128157E+00  0.7436063E+00  0.0000000E+00
0.4961093E+00  0.1010641E+00  0.0000000E+00
0.6250000E+00  0.1000000E+01  0.0000000E+00
0.1250000E+00  0.0000000E+00  0.0000000E+00
0.5722362E+00  0.2379112E+00  0.0000000E+00
0.3424479E+00  0.3281250E+00  0.0000000E+00
0.9424053E+00  0.5493859E+00  0.0000000E+00
0.6101384E+00  0.3330173E+00  0.0000000E+00
0.9321698E+00  0.4633520E+00  0.0000000E+00
0.3358283E+00  0.6839399E+00  0.0000000E+00
0.4116682E+00  0.6556927E+00  0.0000000E+00
0.6250000E-01  0.6893921E+00  0.0000000E+00
0.8765666E+00  0.6733497E+00  0.0000000E+00
0.8473113E+00  0.6023785E+00  0.0000000E+00
0.7637566E+00  0.4241543E+00  0.0000000E+00
0.8381824E+00  0.4279440E+00  0.0000000E+00
0.1000000E+01  0.3750000E+00  0.0000000E+00
0.4903282E+00  0.7448741E+00  0.0000000E+00
0.5699048E+00  0.7629687E+00  0.0000000E+00
0.6638849E+00  0.4901900E+00  0.0000000E+00
0.1000000E+01  0.6250000E+00  0.0000000E+00
0.7331323E+00  0.7291651E+00  0.0000000E+00
0.8071726E+00  0.7100728E+00  0.0000000E+00
0.2866293E+00  0.5835493E+00  0.0000000E+00
0.6867445E+00  0.6519537E+00  0.0000000E+00
0.7126852E+00  0.5764312E+00  0.0000000E+00
0.4098050E+00  0.4900516E+00  0.0000000E+00
0.3306035E+00  0.5062857E+00  0.0000000E+00
0.4590292E+00  0.5733658E+00  0.0000000E+00
0.5827105E+00  0.6452264E+00  0.0000000E+00
0.5424884E+00  0.5739198E+00  0.0000000E+00
0.2055377E+00  0.3916016E+00  0.0000000E+00
0.2842371E+00  0.4154412E+00  0.0000000E+00
0.1775174E+00  0.9444444E+00  0.0000000E+00
0.2500000E+00  0.1000000E+01  0.0000000E+00
0.6250000E-01  0.9565515E+00  0.0000000E+00
0.1250000E+00  0.1000000E+01  0.0000000E+00
0.5625000E+00  0.5261949E-01  0.0000000E+00
0.3224826E+00  0.5555556E-01  0.0000000E+00
0.3533462E+00  0.1726266E+00  0.0000000E+00
0.4375000E+00  0.4344846E-01  0.0000000E+00
0.3750000E+00  0.0000000E+00  0.0000000E+00
0.2500000E+00  0.0000000E+00  0.0000000E+00
0.6830520E+00  0.8822521E+00  0.0000000E+00
0.9274068E+00  0.8214683E+00  0.0000000E+00
0.5877997E+00  0.8725813E+00  0.0000000E+00
0.8719553E+00  0.1809132E+00  0.0000000E+00
0.7459677E-01  0.5307460E+00  0.0000000E+00
0.7069791E+00  0.3758855E+00  0.0000000E+00
0.6429465E+00  0.1849796E+00  0.0000000E+00
0.7340614E+00  0.2890171E+00  0.0000000E+00
0.7211336E+00  0.2088007E+00  0.0000000E+00
0.8524368E+00  0.2933612E+00  0.0000000E+00
0.7224151E-01  0.8222415E+00  0.0000000E+00
0.6875000E+00  0.5261949E-01  0.0000000E+00
0.2599106E-01  0.8959510E-01  0.0000000E+00
0.9375000E+00  0.9563951E+00  0.0000000E+00
0.8221702E+00  0.9446692E+00  0.0000000E+00
0.7500000E+00  0.1000000E+01  0.0000000E+00
0.8750000E+00  0.1000000E+01  0.0000000E+00
0.6445312E-01  0.4394531E+00  0.0000000E+00
0.2002065E+00  0.1036461E+00  0.0000000E+00
0.1875000E+00  0.5468750E+00  0.0000000E+00
0.4519794E+00  0.2411886E+00  0.0000000E+00
0.4380560E+00  0.3174094E+00  0.0000000E+00
0.5478384E+00  0.4363424E+00  0.0000000E+00
0.8125000E+00  0.4878285E-01  0.0000000E+00
0.9375000E+00  0.4878285E-01  0.0000000E+00
0.3956900E-01  0.3125000E+00  0.0000000E+00
0.1861416E+00  0.2830309E+00  0.0000000E+00
0.2658988E+00  0.2357703E+00  0.0000000E+00
0.8133374E+00  0.4871066E+00  0.0000000E+00
0.4499011E+00  0.1571374E+00  0.0000000E+00
0.6848779E+00  0.7668523E+00  0.0000000E+00
0.4375000E+00  0.9696350E+00  0.0000000E+00
0.5188453E+00  0.6980436E+00  0.0000000E+00
0.4270582E+00  0.4337574E+00  0.0000000E+00
0.4403114E+00  0.7668799E+00  0.0000000E+00
0.4605837E+00  0.6918287E+00  0.0000000E+00
0.1108396E-01  0.1875000E+00  0.0000000E+00
0.1225513E+00  0.8035974E+00  0.0000000E+00
0.9741512E-02  0.8125000E+00  0.0000000E+00
0.0000000E+00  0.1250000E+00  0.0000000E+00
0.1953125E-02  0.4375000E+00  0.0000000E+00
0.8796192E+00  0.8471332E+00  0.0000000E+00
0.5806149E-01  0.2301874E+00  0.0000000E+00
0.4847709E+00  0.3468645E+00  0.0000000E+00
0.3035034E+00  0.6368139E+00  0.0000000E+00
0.9900545E+00  0.8125000E+00  0.0000000E+00
0.7770886E-01  0.1137161E+00  0.0000000E+00
0.7185584E+00  0.9227791E+00  0.0000000E+00
0.7804510E+00  0.8456131E+00  0.0000000E+00
0.5816902E+00  0.1768445E+00  0.0000000E+00
0.6774326E+00  0.1040894E+00  0.0000000E+00
0.2864003E-04  0.6875000E+00  0.0000000E+00
0.1687286E+00  0.8853375E+00  0.0000000E+00
0.5956060E+00  0.4570232E+00  0.0000000E+00
0.5151529E+00  0.2387540E+00  0.0000000E+00
0.3355001E+00  0.7622114E+00  0.0000000E+00
0.5625000E+00  0.9931222E+00  0.0000000E+00
0.3930592E+00  0.7945743E+00  0.0000000E+00
0.3920808E+00  0.8466124E+00  0.0000000E+00
0.8290497E+00  0.8874309E+00  0.0000000E+00
0.1671168E+00  0.7222040E+00  0.0000000E+00
0.6214412E+00  0.2299472E+00  0.0000000E+00
0.1000000E+01  0.5625000E+00  0.0000000E+00
0.3831482E+00  0.6950537E+00  0.0000000E+00
0.5769518E+00  0.8167607E+00  0.0000000E+00
0.6250000E-01  0.7519216E+00  0.0000000E+00
0.8903856E+00  0.5678560E+00  0.0000000E+00
0.8228164E+00  0.6539910E+00  0.0000000E+00
0.6341505E+00  0.6575134E+00  0.0000000E+00
0.7290288E+00  0.6790901E+00  0.0000000E+00
0.3589799E+00  0.6301654E+00  0.0000000E+00
0.2930259E+00  0.4682102E+00  0.0000000E+00
0.5860065E+00  0.5963699E+00  0.0000000E+00
0.5009248E+00  0.5486393E+00  0.0000000E+00
0.5005975E+00  0.5979554E+00  0.0000000E+00
0.3624978E+00  0.4605710E+00  0.0000000E+00
0.2528339E+00  0.3772882E+00  0.0000000E+00
0.3688523E+00  0.9473815E+00  0.0000000E+00
0.3180193E+00  0.9622980E+00  0.0000000E+00
0.5514588E-01  0.8974623E+00  0.0000000E+00
0.1875000E+00  0.1000000E+01  0.0000000E+00
0.5625000E+00  0.0000000E+00  0.0000000E+00
0.3286955E+00  0.1138755E+00  0.0000000E+00
0.5104550E+00  0.5100945E-01  0.0000000E+00
0.6529980E+00  0.3670133E+00  0.0000000E+00
0.7421926E+00  0.3392079E+00  0.0000000E+00
0.9445935E+00  0.8971487E+00  0.0000000E+00
0.8125000E+00  0.1000000E+01  0.0000000E+00
0.7634497E+00  0.8929811E+00  0.0000000E+00
0.2208019E+00  0.1595872E+00  0.0000000E+00
0.3125000E+00  0.0000000E+00  0.0000000E+00
0.2063194E+00  0.6153086E+00  0.0000000E+00
0.2413644E+00  0.5535900E+00  0.0000000E+00
0.9375000E+00  0.0000000E+00  0.0000000E+00
0.4081568E+00  0.1990040E+00  0.0000000E+00
0.9984947E+00  0.6250000E-01  0.0000000E+00
0.1480720E+00  0.2449614E+00  0.0000000E+00
0.5596593E+00  0.3730253E+00  0.0000000E+00
0.3936018E+00  0.3526551E+00  0.0000000E+00
0.4976452E+00  0.4484264E+00  0.0000000E+00
0.7565694E+00  0.2442398E+00  0.0000000E+00
0.9593395E+00  0.3125000E+00  0.0000000E+00
0.9023280E+00  0.3228164E+00  0.0000000E+00
0.8592925E+00  0.3616068E+00  0.0000000E+00
0.8125000E+00  0.0000000E+00  0.0000000E+00
[...]
POINT_DATA    1118
SCALARS hauteur float
LOOKUP_TABLE DEFAULT
       0.0000000E+00
       0.0000000E+00
       0.0000000E+00
       0.0000000E+00
       3.5747163E-03
       0.0000000E+00
       0.0000000E+00
       6.5058467E-03
       8.4891726E-04
       0.0000000E+00
       0.0000000E+00
       2.4214996E-03
       7.6117044E-04
       2.2445852E-03
       2.3299419E-03
       0.0000000E+00
       0.0000000E+00
       2.2134377E-03
       3.1276249E-03
       2.6047490E-03
       1.3600911E-03
       1.3896972E-03
       2.0691351E-03
       2.5528846E-03
       7.7125656E-04
       8.2201917E-04
       0.0000000E+00
       3.3408910E-03
       1.5779054E-03
       3.1004624E-03
       2.5268795E-03
       7.8210015E-04
       0.0000000E+00
       2.0871545E-03
       1.2205394E-03
       2.2678632E-03
       2.8341169E-03
       2.0595602E-03
       1.9788189E-03
       1.9601215E-03
       8.1242187E-03
       7.3028598E-03
       2.8976058E-03
       3.2230109E-04
       0.0000000E+00
       0.0000000E+00
       3.0351816E-03
       1.1917917E-03
       7.8169608E-04
       1.1903358E-03
       3.0933848E-03
       3.1260143E-03
       2.0661673E-03
       0.0000000E+00
       0.0000000E+00
       2.3618518E-03
       0.0000000E+00
       1.4378271E-03
       3.3204791E-03
       0.0000000E+00
       2.0040496E-03
       1.2199372E-03
       2.4010898E-03
       3.2872360E-04
       6.0512773E-03
       2.6360910E-03
       2.0486394E-03
       1.1865667E-03
       2.3265628E-03
       0.0000000E+00
       2.3780538E-03
       1.6212303E-03
       1.5325425E-03
       3.5198266E-03
       2.4451796E-03
       1.7903142E-03
       7.3592106E-03
       6.4920930E-03
       6.7776503E-03
       0.0000000E+00
       0.0000000E+00
       7.9138143E-03
       3.4977546E-03
       6.9788654E-04
       2.1777959E-03
       1.1936784E-03
       1.7451303E-03
       2.9068156E-03
       1.0264632E-03
       2.4959224E-03
       2.6157542E-03
       3.1654792E-03
       9.2265247E-03
       0.0000000E+00
       2.3628569E-03
       1.9013356E-03
       2.5987585E-03
       0.0000000E+00
       2.2088096E-03
       2.4909992E-03
       2.4516430E-03
       2.3607629E-03
       2.0237676E-03
       3.1078532E-03
       1.4794857E-03
       3.8600504E-03
       2.0820909E-03
       6.0898027E-03
       6.1738104E-03
       4.5518485E-03
       6.9861867E-04
       0.0000000E+00
       3.6629529E-04
       0.0000000E+00
       1.7386297E-03
       1.2398717E-03
       3.2943382E-03
       1.7948103E-03
       0.0000000E+00
       0.0000000E+00
       2.1574058E-03
       1.2584641E-03
       9.9435011E-04
       1.6266533E-03
       2.5542475E-03
       2.1941539E-03
       1.6552526E-03
       3.5274706E-03
       2.6943066E-03
       1.2465162E-03
       6.2109895E-04
       3.2244141E-03
       5.7694405E-04
       2.2841068E-04
       4.8314901E-04
       0.0000000E+00
       0.0000000E+00
       1.1007008E-03
       1.4613955E-03
       1.5502685E-03
       1.5762897E-03
       7.4989643E-03
       2.9176994E-03
       3.5556935E-04
       1.1099604E-03
       1.4262907E-03
       1.1789275E-03
       3.5963073E-03
       8.2310700E-03
       1.2729966E-03
       1.5163013E-03
       1.6020635E-03
       2.9644470E-03
       2.1654265E-03
       2.6651257E-03
       1.8971883E-03
       1.9475873E-04
       1.0034548E-03
       4.9796138E-04
       0.0000000E+00
       4.1170106E-04
       1.3736487E-03
       1.7162599E-03
       2.5808634E-03
       2.2332903E-03
       1.1745385E-03
       2.3719095E-03
       1.8543040E-03
       6.2424149E-04
       1.4184396E-03
       1.5748408E-03
       6.7733707E-06
       2.5974373E-03
       5.9497308E-03
       3.8030033E-03
       1.5755970E-03
       9.3471501E-04
       1.1210883E-03
       2.3316702E-03
       8.1297966E-04
       2.5137728E-03
       6.2369764E-03
       0.0000000E+00
       8.6525529E-04
       1.1569815E-03
       9.8745450E-04
       1.5560917E-03
       6.1764083E-03
       1.2499785E-03
       1.9120901E-03
       1.4588868E-03
       2.1051864E-03
       3.9135822E-03
       1.5970614E-03
       1.8206483E-03
       1.2864580E-03
       2.4587128E-03
       1.5537597E-03
       3.2944376E-03
       4.8954161E-04
       0.0000000E+00
       0.0000000E+00
       9.3095927E-04
       1.4241524E-03
       5.1222672E-03
       1.4059515E-03
       4.1569615E-04
       0.0000000E+00
       1.4217229E-03
       1.8530472E-03
       0.0000000E+00
       3.5687924E-03
       3.0025388E-03
       0.0000000E+00
       2.5656402E-03
       1.4752336E-04
       1.6069062E-03
       2.1596886E-03
       2.2472705E-03
       2.5434045E-03
       2.5846734E-03
       2.2141683E-03
       1.4749162E-03
       1.0318191E-03
       0.0000000E+00
       3.6810366E-03
       1.5313239E-03
       3.3410199E-03
       1.4529690E-03
       5.0784307E-03
       9.3970400E-04
       1.2152626E-03
       1.9074594E-03
       2.5775859E-03
       1.4353422E-03
       7.9759781E-04
       2.7716583E-03
       5.5736678E-04
       7.7541572E-04
       1.1487976E-03
       2.7442201E-03
       7.0322163E-03
       1.7732022E-03
       3.0883948E-03
       1.9333156E-03
       1.5855543E-03
       1.7488266E-03
       0.0000000E+00
       0.0000000E+00
       1.5601165E-03
       1.5793667E-03
       1.5737800E-03
       5.6512471E-04
       7.7182599E-04
       2.3228901E-03
       2.5701082E-03
       3.0216781E-03
       1.3586022E-03
       2.5250575E-03
       2.7168946E-03
       2.2568032E-03
       9.3047389E-04
       2.1442810E-03
       8.5119364E-05
       1.5734868E-03
       2.0169484E-03
       5.1750685E-04
       1.4075727E-03
       1.5409652E-03
       1.9227611E-03
       6.9462201E-03
       2.0754055E-03
       1.8353818E-03
       2.8102555E-04
       1.2794195E-03
       4.0281954E-03
       4.9864826E-03
       8.1233906E-04
       6.6617600E-04
       1.1108096E-03
       4.0435498E-03
       7.6312179E-04
       1.8755004E-03
       6.6624325E-04
       7.1119829E-04
       9.5835557E-04
       3.7150531E-03
       1.0180302E-03
       1.7127499E-03
       8.3428530E-04
       2.3629402E-03
       2.8909024E-03
       2.1040223E-03
       1.3127601E-03
       1.9367786E-03
       1.5779624E-03
       1.2980506E-04
       3.0772072E-04
       0.0000000E+00
       1.4743146E-04
       7.6326059E-04
       4.6227920E-04
       3.0386279E-04
       4.3636674E-04
       5.8513307E-04
       1.3504379E-03
       2.8566316E-03
       2.8055981E-03
       2.3135073E-03
       2.1488491E-03
       1.9763661E-03
       2.0394952E-03
       3.5030584E-03
       2.2422770E-03
       9.5083251E-04
       7.1743378E-04
       2.6816069E-04
       2.8631550E-04
       8.5730897E-05
       3.1410912E-04
       1.7460577E-03
       2.0840299E-03
       1.9280273E-03
       1.0878613E-03
       2.4781708E-03
       2.1765738E-03
       1.5908682E-03
       2.6540159E-03
       2.1497948E-03
       1.2854153E-03
       2.2826758E-03
       1.4188528E-03
       2.2576709E-03
       3.5206820E-03
       2.4090747E-03
       9.7163919E-04
       9.1358963E-04
       0.0000000E+00
       3.5016557E-04
       8.7328574E-04
       1.1230294E-03
       3.5451699E-03
       6.0509370E-03
       3.7931066E-03
       2.1487088E-03
       4.2850636E-03
       4.0633772E-03
       1.6188165E-03
       2.1487465E-03
       1.4859788E-03
       1.1077340E-03
       8.2490222E-04
       7.2949357E-04
       2.2822829E-04
       6.6443020E-04
       5.1072709E-04
       5.3124726E-04
       9.5026223E-04
       0.0000000E+00
       2.4376141E-03
       2.7967783E-03
       1.9610970E-03
       2.1314323E-04
       2.8668981E-05
       7.1818227E-05
       3.1516915E-03
       3.5001733E-03
       1.7866336E-03
       4.1354249E-04
       2.4957342E-04
       2.5225406E-04
       9.4206244E-04
       2.2934696E-03
       2.2501938E-03
       8.9342014E-04
       2.0237871E-03
       2.0560324E-03
       2.8286912E-03
       1.5496114E-03
       1.2927440E-03
       3.8931149E-03
       1.3006149E-03
       1.9467458E-03
       1.2290478E-03
       1.2924784E-03
       3.6149515E-04
       3.7894263E-04
       1.1805313E-03
       4.6009344E-03
       4.4185725E-03
       1.6255682E-03
       2.9437805E-03
       2.3620594E-03
       3.0744574E-03
       3.0427741E-03
       2.3640992E-03
       1.6860506E-03
       1.6373906E-03
       4.5474887E-03
       4.7339599E-03
       2.2510961E-03
       1.4299479E-03
       1.8828085E-03
       2.4733476E-03
       1.9007538E-03
       2.3049392E-03
       1.7441570E-03
       2.1239722E-03
       2.1766120E-03
       1.7495594E-03
       1.8308043E-03
       1.2840425E-03
       1.6037870E-03
       1.3910569E-03
       1.0454512E-03
       1.3767296E-03
       1.6199075E-03
       2.4764695E-03
       2.4880489E-03
       1.8923966E-03
       1.1174672E-03
       8.2048868E-04
       6.5296362E-04
       1.4497806E-03
       1.2532983E-03
       4.8211093E-04
       1.3176581E-03
       1.9480573E-03
       1.3607669E-03
       1.7687480E-03
       1.6590075E-03
       1.4189251E-03
       3.9433606E-04
       3.5763093E-06
       4.5603441E-04
       1.7175397E-03
       2.1528738E-03
       1.8831825E-03
       1.7095056E-03
       1.4527550E-03
       0.0000000E+00
       1.9747833E-04
       4.5547966E-04
       5.5397849E-04
       9.1042373E-04
       3.9814194E-04
       1.1137744E-03
       1.4023055E-03
       1.1507465E-03
       2.1972737E-03
       2.8327590E-03
       3.5843275E-03
       4.0854384E-03
       1.7001244E-03
       2.0744690E-03
       4.2754921E-03
       3.3798827E-03
       4.4533653E-03
       4.8867756E-03
       2.8809422E-03
       1.3893140E-03
       1.6092508E-03
       1.1723432E-03
       4.2162762E-03
       4.9325088E-03
       2.9087343E-03
       1.7733901E-03
       1.8551627E-03
       9.1371448E-04
       2.1103382E-04
       1.9484773E-04
       0.0000000E+00
       1.8488636E-03
       2.4194199E-03
       1.3664610E-03
       5.7552371E-04
       7.6048015E-04
       1.7711514E-03
       1.5138736E-03
       1.1853646E-03
       1.6983596E-03
       2.7017191E-03
       2.1901519E-03
       2.2751608E-03
       3.1375784E-03
       2.3616153E-03
       9.2100796E-04
       9.5266245E-04
       5.3296820E-04
       1.1296408E-03
       4.2128606E-04
       5.1430473E-04
       1.0573166E-03
       1.9017575E-03
       1.8831946E-03
       4.0730684E-03
       1.3895081E-03
       3.8023794E-03
       3.7517164E-03
       1.7055219E-03
       1.4516625E-03
       1.8909061E-03
       1.6546064E-03
       5.5783892E-03
       7.3555425E-03
       4.6379570E-03
       1.1449614E-03
       1.3648645E-03
       2.0915383E-04
       3.9156312E-04
       2.1106855E-03
       1.6255441E-03
       1.8593264E-03
       2.6352933E-03
       1.1113943E-03
       1.6628355E-03
       3.2368561E-03
       3.1984268E-03
       3.9520237E-03
       4.8262525E-03
       2.1465976E-03
       2.4017061E-04
       0.0000000E+00
       3.4098312E-03
       3.3113007E-03
       1.2051133E-03
       2.2186582E-03
       1.8343639E-03
       1.5305162E-03
       2.1891451E-03
       2.7677100E-03
       2.3648940E-03
       3.8530377E-03
       3.2049728E-04
       1.7149230E-03
       1.5508081E-03
       1.5927098E-03
       2.3371553E-03
       1.8099174E-03
       7.6920239E-04
       1.0712413E-03
       6.5756578E-04
       1.8082002E-03
       2.2945249E-03
       2.2681733E-04
       0.0000000E+00
       2.8895392E-04
       2.4182384E-03
       2.4997912E-03
       1.4039143E-03
       2.9737930E-03
       3.3802243E-03
       1.2872458E-03
       1.9112929E-03
       1.7051289E-03
       3.9805639E-03
       1.9868045E-03
       6.7280044E-04
       1.2990535E-03
       8.5510208E-04
       6.2249697E-04
       4.7108472E-04
       1.3831915E-04
       0.0000000E+00
       2.6704086E-04
       1.2183811E-03
       2.0824806E-03
       1.9998510E-03
       1.6852491E-03
       1.7802043E-03
       9.4979255E-04
       2.2544489E-03
       3.5047862E-03
       2.3366507E-03
       9.7958943E-04
       1.2769993E-03
       1.7159898E-03
       2.2841820E-03
       1.4933814E-03
       4.2601854E-03
       3.8240463E-03
       2.5236211E-03
       3.2184276E-03
       2.2424015E-03
       1.9902968E-03
       2.9736348E-03
       2.1147026E-03
       8.4138334E-04
       9.2816583E-04
       4.0620656E-04
       4.5958741E-04
       7.2973705E-04
       1.5844700E-03
       2.3336176E-03
       1.0426619E-03
       2.0632136E-04
       5.8500734E-04
       9.7309716E-04
       6.9003702E-04
       5.6914734E-04
       1.3732620E-03
       1.4945508E-03
       8.6206003E-04
       1.0093313E-03
       4.8147666E-04
       8.2631060E-04
       1.3112325E-03
       8.6354423E-04
       1.5710278E-04
       1.4872243E-04
       8.0320470E-05
       6.7835178E-04
       1.7618210E-03
       1.7969766E-03
       3.4524553E-03
       2.5486244E-03
       1.1117114E-03
       1.8893634E-03
       1.6223773E-03
       3.3992331E-03
       2.0663421E-03
       1.8781329E-03
       1.6327313E-03
       2.4280339E-03
       3.2997424E-03
       2.0484537E-03
       1.9051004E-03
       1.2427603E-03
       2.0453253E-03
       0.0000000E+00
       3.8624935E-05
       4.5332642E-04
       0.0000000E+00
       5.3659668E-04
       6.7929346E-04
       7.8725995E-04
       3.3447098E-04
       1.9261253E-03
       2.1295902E-03
       1.3387983E-03
       1.9414060E-03
       3.8545595E-03
       3.6956972E-03
       1.7702817E-03
       2.0138750E-03
       1.3619871E-03
       4.5222425E-03
       2.2638437E-03
       3.0451352E-03
       4.3381234E-03
       5.2372689E-03
       2.5675701E-03
       3.9885268E-03
       4.2771263E-03
       1.7915434E-03
       1.2884325E-03
       2.3183221E-03
       1.4224521E-03
       2.1282680E-03
       1.4208860E-03
       1.2559320E-04
       6.2834642E-04
       0.0000000E+00
       2.6481299E-03
       1.7498438E-03
       1.6298325E-03
       1.2526986E-03
       7.4949642E-04
       4.6610790E-04
       5.7097733E-04
       0.0000000E+00
       5.6299009E-04
       3.5706447E-04
       5.0805274E-04
       1.9494349E-04
       1.6029317E-04
       4.0401097E-05
       0.0000000E+00
       1.0655155E-03
       5.1082543E-04
       0.0000000E+00
       1.6650613E-04
       2.3717457E-04
       1.9618545E-03
       3.1801443E-03
       4.9745651E-03
       2.8025868E-03
       5.4803908E-04
       2.1145753E-04
       1.3638577E-03
       2.2827022E-03
       2.3268125E-03
       1.3911429E-03
       7.9207916E-04
       1.8588600E-03
       2.2416050E-03
       1.4255361E-03
       1.5320670E-03
       3.5306044E-03
       3.0847922E-03
       1.9721007E-03
       2.6807779E-03
       1.7099650E-03
       2.9851430E-03
       1.3392356E-03
       2.0235385E-03
       1.4462164E-03
       5.2306218E-03
       3.7965501E-03
       1.5620691E-03
       3.4383626E-03
       1.2967491E-03
       1.3144568E-03
       1.3194561E-03
       5.6670560E-04
       7.8117574E-04
       8.2542237E-04
       1.2080577E-03
       1.5162561E-03
       1.8516630E-03
       2.0825128E-03
       7.4471721E-04
       1.9479760E-03
       2.9535330E-03
       2.1913144E-03
       8.0867097E-04
       1.4904850E-03
       1.4571433E-03
       1.3685898E-03
       2.1038603E-03
       1.6203713E-03
       1.8516274E-03
       1.1483087E-03
       5.3099613E-04
       5.0314008E-04
       0.0000000E+00
       9.0891889E-04
       1.2878846E-03
       8.4247520E-04
       1.0405462E-03
       1.5737443E-03
       2.8557209E-04
       0.0000000E+00
       1.6615983E-03
       1.1003063E-03
       2.6541804E-03
       3.9528736E-03
       3.6650999E-03
       1.1196405E-03
       0.0000000E+00
       9.4080658E-04
       4.4523249E-04
       0.0000000E+00
       4.4277285E-04
       5.7764638E-04
       1.3563128E-03
       2.4280438E-03
       9.7143078E-04
       1.7449670E-03
       1.4639195E-03
       3.4936076E-04
       0.0000000E+00
       1.0952259E-03
       2.0610508E-03
       1.6699421E-03
       1.6638785E-03
       1.8479484E-03
       3.9588845E-03
       1.4794560E-03
       3.0751490E-03
       2.8515355E-03
       2.0395938E-03
       3.1794528E-03
       2.5356659E-03
       4.1176588E-03
       4.7785525E-03
       3.3228993E-03
       3.4979788E-03
       1.5905337E-03
       2.2304197E-03
       4.3523074E-03
       4.2494948E-03
       4.2883262E-03
       4.3088523E-03
       3.3095173E-03
       3.1674036E-03
       1.9253138E-03
       9.1068323E-04
       1.5824130E-03
       3.7751214E-03
       3.6775005E-03
       2.2576180E-03
       4.7996590E-03
       3.4213306E-03
       1.9927181E-03
       4.0183180E-03
       3.6436456E-03
       1.6547691E-03
       1.6459278E-03
       1.3158358E-03
       1.7858719E-03
       1.5011781E-03
       2.0381673E-03
       1.9102169E-03
       2.3206476E-03
       1.9466959E-03
       1.3357205E-03
       4.4203896E-04
       7.1196237E-04
       2.8900034E-04
       1.9573575E-03
       2.4295852E-03
       1.7498125E-03
       1.4364273E-03
       1.7447024E-03
       1.5255984E-03
       1.5003131E-03
       2.1268417E-03
       1.3268722E-03
       8.8782918E-04
       2.1248696E-03
       2.5766400E-03
       1.6765951E-03
       9.2889288E-04
       1.5414671E-03
       1.2572708E-03
       4.8823306E-03
       4.2225550E-03
       2.8806049E-03
       2.2906703E-03
       2.1226979E-03
       2.7500107E-03
       1.1324795E-03
       1.8849483E-03
       2.4706669E-03
       1.9661234E-03
       1.8827771E-03
       2.5387822E-03
       2.0143230E-03
       4.8668839E-04
       7.5193125E-04
       7.3837364E-04
       2.4460259E-03
       1.5708986E-03
       1.7540125E-03
       4.8153791E-03
       1.1664615E-03
       1.1027300E-03
       4.1572794E-04
       4.7419248E-03
       4.8931997E-03
       1.8897182E-03
       1.2799755E-03
       1.3228245E-03
       1.0201583E-03
       1.8260543E-03
       1.9000508E-03
       2.4123142E-03
       3.7087003E-03
       1.9814662E-03
       0.0000000E+00
       1.0461310E-03
       1.9730613E-03
       1.9533703E-03
       1.8257499E-03
       2.6512144E-03
       2.1794373E-03
       1.8780014E-03
       4.1912314E-03
       1.5306408E-03
       2.7163141E-03
       7.6423007E-04
       1.3508737E-03
       1.8598425E-03
       1.4531316E-03
       3.6837941E-03
       1.5116218E-03
       1.0768374E-03
       1.8785111E-03
       1.0656284E-03
       1.7004138E-03
       2.2303899E-03
       4.6782784E-03
       4.4233703E-03
       1.9512587E-03
       1.7230317E-03
       1.3796769E-03
       1.8025807E-03
       9.5141370E-04
       2.0974206E-03
       1.1010038E-03
       9.0678611E-04
       7.7269453E-04
       0.0000000E+00
       1.6066526E-03
       1.2481516E-03
       8.1519253E-04
       6.9907674E-04
       1.6551162E-03
       2.2972511E-03
       9.5081469E-04
       1.0315287E-03
       8.9971985E-04
       1.1776856E-03
       6.5815235E-04
       7.8158360E-04
       1.2868672E-03
       2.3378326E-03
       2.5786376E-03
       1.5859751E-03
       2.5283023E-03
       9.9298525E-04
       1.3958305E-03
       1.1310039E-03
       0.0000000E+00
       8.7221615E-04
       7.1108912E-04
       2.1370551E-04
       0.0000000E+00
       8.6539575E-04
       4.4881627E-04
       6.5163597E-04
       1.7055769E-03
       8.5975069E-04
       2.0351205E-03
       1.4339047E-03
       1.4521940E-03
       3.7323266E-04
       0.0000000E+00
       5.8651261E-04
       7.6839233E-04
       2.2342976E-03
       1.5512842E-03
       1.1029397E-03
       1.9567924E-03
       2.6486882E-03
       7.3694612E-04
       6.5963731E-04
       3.0756736E-03
       1.0124541E-03
       1.1879625E-03
       3.4882460E-04
       1.2856783E-04
       1.7886597E-03
       3.6222459E-03
       4.8949171E-03
       3.3447416E-03
       3.9931110E-03
       1.7614544E-03