# vtk DataFile Version 3.0
# Solution du M1 TR
ASCII
DATASET UNSTRUCTURED_GRID
POINTS   1616  float
0.0000000E+00  0.0000000E+00  0.0000000E+00
0.0000000E+00  0.1000000E+01  0.0000000E+00
0.1000000E+01  0.1000000E+01  0.0000000E+00
0.1000000E+01  0.0000000E+00  0.0000000E+00
0.5000000E+00  0.5000000E+00  0.0000000E+00
0.0000000E+00  0.5000000E+00  0.0000000E+00
0.5000000E+00  0.0000000E+00  0.0000000E+00
0.2500000E+00  0.5000000E+00  0.0000000E+00
0.2500000E+00  0.9687500E+00  0.0000000E+00
0.5000000E+00  0.1000000E+01  0.0000000E+00
0.0000000E+00  0.2500000E+00  0.0000000E+00
0.3750000E+00  0.2500000E+00  0.0000000E+00
0.2500000E+00  0.3125000E-01  0.0000000E+00
0.1250000E+00  0.7500000E+00  0.0000000E+00
0.3911638E+00  0.7429957E+00  0.0000000E+00
0.1000000E+01  0.5000000E+00  0.0000000E+00
0.7500000E+00  0.0000000E+00  0.0000000E+00
0.6562500E+00  0.2656250E+00  0.0000000E+00
0.7500000E+00  0.4973958E+00  0.0000000E+00
0.8723823E+00  0.7500000E+00  0.0000000E+00
0.7500000E+00  0.9700452E+00  0.0000000E+00
0.6322989E+00  0.7103680E+00  0.0000000E+00
0.9186790E+00  0.2500000E+00  0.0000000E+00
0.5008484E+00  0.6462514E+00  0.0000000E+00
0.6257190E+00  0.5677212E+00  0.0000000E+00
0.5266793E+00  0.8371547E+00  0.0000000E+00
0.7663311E+00  0.6454318E+00  0.0000000E+00
0.7376584E+00  0.8191260E+00  0.0000000E+00
0.1250000E+00  0.3750000E+00  0.0000000E+00
0.1760417E+00  0.1989583E+00  0.0000000E+00
0.1250000E+00  0.5937500E+00  0.0000000E+00
0.6250000E+00  0.1052390E+00  0.0000000E+00
0.0000000E+00  0.7500000E+00  0.0000000E+00
0.1145833E+00  0.9010417E+00  0.0000000E+00
0.2599627E+00  0.8179678E+00  0.0000000E+00
0.3750000E+00  0.4062500E+00  0.0000000E+00
0.3854167E+00  0.9895833E-01  0.0000000E+00
0.8750000E+00  0.9756571E-01  0.0000000E+00
0.7926728E+00  0.3452888E+00  0.0000000E+00
0.1000000E+01  0.7500000E+00  0.0000000E+00
0.6241122E+00  0.4134706E+00  0.0000000E+00
0.8850551E+00  0.9011034E+00  0.0000000E+00
0.3750000E+00  0.5738533E+00  0.0000000E+00
0.9361911E+00  0.6250000E+00  0.0000000E+00
0.8748313E+00  0.5148913E+00  0.0000000E+00
0.1406250E+00  0.4843750E+00  0.0000000E+00
0.7508108E+00  0.1278183E+00  0.0000000E+00
0.3906250E-02  0.6250000E+00  0.0000000E+00
0.5030887E+00  0.1829537E+00  0.0000000E+00
0.2578125E+00  0.3281250E+00  0.0000000E+00
0.3882478E+00  0.8980833E+00  0.0000000E+00
0.1000000E+01  0.8750000E+00  0.0000000E+00
0.6191150E+00  0.9359067E+00  0.0000000E+00
0.6312034E+00  0.8168420E+00  0.0000000E+00
0.2783119E+00  0.1438971E+00  0.0000000E+00
0.6250000E+00  0.0000000E+00  0.0000000E+00
0.0000000E+00  0.8750000E+00  0.0000000E+00
0.8750000E+00  0.0000000E+00  0.0000000E+00
0.9230908E+00  0.3867911E+00  0.0000000E+00
0.8046824E+00  0.2302127E+00  0.0000000E+00
0.5303440E+00  0.3156721E+00  0.0000000E+00
0.4762698E+00  0.4014320E+00  0.0000000E+00
0.1178133E+00  0.7311825E-01  0.0000000E+00
0.7237960E-01  0.1705329E+00  0.0000000E+00
0.1020690E+00  0.2729310E+00  0.0000000E+00
0.0000000E+00  0.3750000E+00  0.0000000E+00
0.1000000E+01  0.2500000E+00  0.0000000E+00
0.9969894E+00  0.1250000E+00  0.0000000E+00
0.2566406E+00  0.6672397E+00  0.0000000E+00
0.1861416E+00  0.2830309E+00  0.0000000E+00
0.2658988E+00  0.2357703E+00  0.0000000E+00
0.3956900E-01  0.3125000E+00  0.0000000E+00
0.9375000E+00  0.4878285E-01  0.0000000E+00
0.8125000E+00  0.4878285E-01  0.0000000E+00
0.5478384E+00  0.4363424E+00  0.0000000E+00
0.4380560E+00  0.3174094E+00  0.0000000E+00
0.4519794E+00  0.2411886E+00  0.0000000E+00
0.1875000E+00  0.5468750E+00  0.0000000E+00
0.6445312E-01  0.4394531E+00  0.0000000E+00
0.2002065E+00  0.1036461E+00  0.0000000E+00
0.8750000E+00  0.1000000E+01  0.0000000E+00
0.7500000E+00  0.1000000E+01  0.0000000E+00
0.8221702E+00  0.9446692E+00  0.0000000E+00
0.9375000E+00  0.9563951E+00  0.0000000E+00
0.2599106E-01  0.8959510E-01  0.0000000E+00
0.6875000E+00  0.5261949E-01  0.0000000E+00
0.7224151E-01  0.8222415E+00  0.0000000E+00
0.8524368E+00  0.2933612E+00  0.0000000E+00
0.7211336E+00  0.2088007E+00  0.0000000E+00
0.7340614E+00  0.2890171E+00  0.0000000E+00
0.6429465E+00  0.1849796E+00  0.0000000E+00
0.7069791E+00  0.3758855E+00  0.0000000E+00
0.7459677E-01  0.5307460E+00  0.0000000E+00
0.8719553E+00  0.1809132E+00  0.0000000E+00
0.9274068E+00  0.8214683E+00  0.0000000E+00
0.5877997E+00  0.8725813E+00  0.0000000E+00
0.6830520E+00  0.8822521E+00  0.0000000E+00
0.3750000E+00  0.0000000E+00  0.0000000E+00
0.2500000E+00  0.0000000E+00  0.0000000E+00
0.4375000E+00  0.4344846E-01  0.0000000E+00
0.3224826E+00  0.5555556E-01  0.0000000E+00
0.3533462E+00  0.1726266E+00  0.0000000E+00
0.5625000E+00  0.5261949E-01  0.0000000E+00
0.1250000E+00  0.1000000E+01  0.0000000E+00
0.2500000E+00  0.1000000E+01  0.0000000E+00
0.6250000E-01  0.9565515E+00  0.0000000E+00
0.1775174E+00  0.9444444E+00  0.0000000E+00
0.2842371E+00  0.4154412E+00  0.0000000E+00
0.2055377E+00  0.3916016E+00  0.0000000E+00
0.4590292E+00  0.5733658E+00  0.0000000E+00
0.5424884E+00  0.5739198E+00  0.0000000E+00
0.5827105E+00  0.6452264E+00  0.0000000E+00
0.4098050E+00  0.4900516E+00  0.0000000E+00
0.3306035E+00  0.5062857E+00  0.0000000E+00
0.2866293E+00  0.5835493E+00  0.0000000E+00
0.7126852E+00  0.5764312E+00  0.0000000E+00
0.6867445E+00  0.6519537E+00  0.0000000E+00
0.7331323E+00  0.7291651E+00  0.0000000E+00
0.8071726E+00  0.7100728E+00  0.0000000E+00
0.1000000E+01  0.6250000E+00  0.0000000E+00
0.6638849E+00  0.4901900E+00  0.0000000E+00
0.4903282E+00  0.7448741E+00  0.0000000E+00
0.5699048E+00  0.7629687E+00  0.0000000E+00
0.1000000E+01  0.3750000E+00  0.0000000E+00
0.8381824E+00  0.4279440E+00  0.0000000E+00
0.7637566E+00  0.4241543E+00  0.0000000E+00
0.8473113E+00  0.6023785E+00  0.0000000E+00
0.8765666E+00  0.6733497E+00  0.0000000E+00
0.6250000E-01  0.6893921E+00  0.0000000E+00
0.9321698E+00  0.4633520E+00  0.0000000E+00
0.4116682E+00  0.6556927E+00  0.0000000E+00
0.3358283E+00  0.6839399E+00  0.0000000E+00
0.9424053E+00  0.5493859E+00  0.0000000E+00
0.6101384E+00  0.3330173E+00  0.0000000E+00
0.3424479E+00  0.3281250E+00  0.0000000E+00
0.6250000E+00  0.1000000E+01  0.0000000E+00
0.5722362E+00  0.2379112E+00  0.0000000E+00
0.1250000E+00  0.0000000E+00  0.0000000E+00
0.4961093E+00  0.1010641E+00  0.0000000E+00
0.2128157E+00  0.7436063E+00  0.0000000E+00
0.1634524E+00  0.6718750E+00  0.0000000E+00
0.4371347E+00  0.8214313E+00  0.0000000E+00
0.4772928E+00  0.9126717E+00  0.0000000E+00
0.8282243E+00  0.8297866E+00  0.0000000E+00
0.3001743E+00  0.8963449E+00  0.0000000E+00
0.1698254E+00  0.8289714E+00  0.0000000E+00
0.3480054E+00  0.8197554E+00  0.0000000E+00
0.3750000E+00  0.1000000E+01  0.0000000E+00
0.1762151E+00  0.4194615E-01  0.0000000E+00
0.9680956E+00  0.6875000E+00  0.0000000E+00
0.5469063E+00  0.9322093E+00  0.0000000E+00
0.6250000E-01  0.3707934E+00  0.0000000E+00
0.6820887E+00  0.9624413E+00  0.0000000E+00
0.6283049E-01  0.3080178E-01  0.0000000E+00
0.9361911E+00  0.7431794E+00  0.0000000E+00
0.5218015E+00  0.8878721E+00  0.0000000E+00
0.9679019E-01  0.3277273E+00  0.0000000E+00
0.1328125E+00  0.5390625E+00  0.0000000E+00
0.7504054E+00  0.6390916E-01  0.0000000E+00
0.1808216E-01  0.5619960E+00  0.0000000E+00
0.6339867E-01  0.6052890E+00  0.0000000E+00
0.4407875E+00  0.9872212E-01  0.0000000E+00
0.3001302E+00  0.3629749E+00  0.0000000E+00
0.4168318E+00  0.5420986E+00  0.0000000E+00
0.2903688E-02  0.9375000E+00  0.0000000E+00
0.2839818E+00  0.7336885E+00  0.0000000E+00
0.2128527E+00  0.2371791E+00  0.0000000E+00
0.4836318E+00  0.2863527E+00  0.0000000E+00
0.6721714E+00  0.5424286E+00  0.0000000E+00
0.9359947E+00  0.1112829E+00  0.0000000E+00
0.9517510E+00  0.1836890E+00  0.0000000E+00
0.6340995E+00  0.5261949E-01  0.0000000E+00
0.7019908E+00  0.4392806E+00  0.0000000E+00
0.9971438E+00  0.9375000E+00  0.0000000E+00
0.6661390E+00  0.6026597E+00  0.0000000E+00
0.9899528E+00  0.4375000E+00  0.0000000E+00
0.8913051E+00  0.4293793E+00  0.0000000E+00
0.6237410E+00  0.7635226E+00  0.0000000E+00
0.5733745E+00  0.7037785E+00  0.0000000E+00
0.5793104E+00  0.5064590E+00  0.0000000E+00
0.5229786E+00  0.7853125E+00  0.0000000E+00
0.3034500E+00  0.8451604E+00  0.0000000E+00
0.7822547E+00  0.5776973E+00  0.0000000E+00
0.8303615E+00  0.5489748E+00  0.0000000E+00
0.7835876E+00  0.7717209E+00  0.0000000E+00
0.8327043E+00  0.7801531E+00  0.0000000E+00
0.6854136E+00  0.7052936E+00  0.0000000E+00
0.1401991E+00  0.1391516E+00  0.0000000E+00
0.3283395E+00  0.5561428E+00  0.0000000E+00
0.0000000E+00  0.6250000E+00  0.0000000E+00
0.6875000E+00  0.0000000E+00  0.0000000E+00
0.1710391E+00  0.7760750E+00  0.0000000E+00
0.2251053E+00  0.8853554E+00  0.0000000E+00
0.2111577E+00  0.6918965E+00  0.0000000E+00
0.1739414E+00  0.3412283E+00  0.0000000E+00
0.5600424E+00  0.1189662E+00  0.0000000E+00
0.3167099E+00  0.2715566E+00  0.0000000E+00
0.3179855E+00  0.2157803E+00  0.0000000E+00
0.8613497E+00  0.2369903E+00  0.0000000E+00
0.8872119E+00  0.4878285E-01  0.0000000E+00
0.7922406E+00  0.2870790E+00  0.0000000E+00
0.6821759E+00  0.3204970E+00  0.0000000E+00
0.4171914E+00  0.6040837E+00  0.0000000E+00
0.4882813E-01  0.4873992E+00  0.0000000E+00
0.1564016E+00  0.4263176E+00  0.0000000E+00
0.2116657E+00  0.4524059E+00  0.0000000E+00
0.8074225E+00  0.1634024E+00  0.0000000E+00
0.8041188E+00  0.1058338E+00  0.0000000E+00
0.6952898E+00  0.1534009E+00  0.0000000E+00
0.1077902E+00  0.6507460E+00  0.0000000E+00
0.5775078E+00  0.2909159E+00  0.0000000E+00
0.6842144E+00  0.8280762E+00  0.0000000E+00
0.2569848E+00  0.8937590E-01  0.0000000E+00
0.8125000E+00  0.0000000E+00  0.0000000E+00
0.8592925E+00  0.3616068E+00  0.0000000E+00
0.9593395E+00  0.3125000E+00  0.0000000E+00
0.9023280E+00  0.3228164E+00  0.0000000E+00
0.7565694E+00  0.2442398E+00  0.0000000E+00
0.4976452E+00  0.4484264E+00  0.0000000E+00
0.3936018E+00  0.3526551E+00  0.0000000E+00
0.5596593E+00  0.3730253E+00  0.0000000E+00
0.1480720E+00  0.2449614E+00  0.0000000E+00
0.9984947E+00  0.6250000E-01  0.0000000E+00
0.9375000E+00  0.0000000E+00  0.0000000E+00
0.4081568E+00  0.1990040E+00  0.0000000E+00
[...]
POINT_DATA    1616
SCALARS hauteur float
LOOKUP_TABLE DEFAULT
       0.0000000E+00
       0.0000000E+00
       0.0000000E+00
       0.0000000E+00
       6.2520153E-02
       0.0000000E+00
       0.0000000E+00
       4.6890857E-02
       5.6864068E-03
       0.0000000E+00
       0.0000000E+00
       4.3955396E-02
       5.6743009E-03
       2.0515284E-02
       4.5485990E-02
       0.0000000E+00
       0.0000000E+00
       4.4019848E-02
       4.6870410E-02
       2.0841472E-02
       5.4454213E-03
       4.7833786E-02
       1.4000918E-02
       5.7174694E-02
       5.7489197E-02
       3.4002859E-02
       4.0996809E-02
       2.8708528E-02
       2.5638278E-02
       2.3125285E-02
       2.6390008E-02
       2.2063974E-02
       0.0000000E+00
       9.0530926E-03
       2.8643475E-02
       5.6562292E-02
       2.1140734E-02
       9.6271796E-03
       3.7167566E-02
       0.0000000E+00
       5.6930795E-02
       9.0500640E-03
       5.7342131E-02
       1.4000115E-02
       2.7354909E-02
       3.0200008E-02
       2.0858642E-02
       9.0891776E-04
       3.7375732E-02
       4.2202452E-02
       2.1743069E-02
       0.0000000E+00
       1.4141707E-02
       3.4846394E-02
       2.4794887E-02
       0.0000000E+00
       0.0000000E+00
       0.0000000E+00
       1.6817776E-02
       2.7845488E-02
       5.3829373E-02
       5.9977067E-02
       7.0521205E-03
       9.5305498E-03
       1.8185944E-02
       0.0000000E+00
       0.0000000E+00
       3.2895134E-04
       4.2372709E-02
       3.0759503E-02
       3.5170355E-02
       8.1688109E-03
       2.6748205E-03
       7.0876693E-03
       6.0953656E-02
       5.3363834E-02
       4.5345051E-02
       3.7778571E-02
       1.4863058E-02
       1.4870771E-02
       0.0000000E+00
       0.0000000E+00
       7.6468341E-03
       2.4167528E-03
       2.0872256E-03
       1.0713235E-02
       9.7995367E-03
       2.6099392E-02
       3.3221869E-02
       4.0111103E-02
       3.4659853E-02
       4.8612526E-02
       1.7214772E-02
       1.6540195E-02
       9.8757799E-03
       2.6927516E-02
       2.2488373E-02
       0.0000000E+00
       0.0000000E+00
       1.0237755E-02
       1.1481328E-02
       3.2663036E-02
       1.2257732E-02
       0.0000000E+00
       0.0000000E+00
       2.4204840E-03
       7.6652410E-03
       4.9429491E-02
       3.8906932E-02
       6.0765995E-02
       6.0709697E-02
       5.5681850E-02
       6.0472494E-02
       5.5333125E-02
       4.9720949E-02
       5.0023652E-02
       4.8826907E-02
       3.8657932E-02
       3.2010088E-02
       0.0000000E+00
       5.5763947E-02
       4.7519064E-02
       4.4349968E-02
       0.0000000E+00
       3.3199512E-02
       4.4059292E-02
       3.0971815E-02
       2.3772353E-02
       1.2556235E-02
       1.5718394E-02
       5.4699734E-02
       4.8231363E-02
       1.3441800E-02
       5.2880394E-02
       4.9662963E-02
       0.0000000E+00
       4.4393051E-02
       0.0000000E+00
       2.2730594E-02
       3.1947048E-02
       3.0141490E-02
       3.6111237E-02
       1.9902290E-02
       2.0099295E-02
       1.9527866E-02
       1.9987989E-02
       3.3548321E-02
       0.0000000E+00
       5.8481247E-03
       6.6377380E-03
       1.5661880E-02
       1.3659466E-02
       7.8377784E-03
       1.7471647E-03
       1.1398674E-02
       2.4845763E-02
       1.9280837E-02
       2.8613502E-02
       1.1202206E-02
       4.3709111E-03
       1.4198813E-02
       2.1939263E-02
       4.8596365E-02
       6.0380095E-02
       1.7474105E-04
       3.9737293E-02
       3.0330564E-02
       5.1060148E-02
       5.4742296E-02
       5.9164380E-03
       6.9293093E-03
       1.1567840E-02
       5.1550035E-02
       1.7271223E-04
       5.3315639E-02
       2.4556019E-03
       2.3735761E-02
       4.2396494E-02
       5.1049674E-02
       6.0973500E-02
       4.2061608E-02
       2.7680400E-02
       4.1569282E-02
       3.4899300E-02
       2.9886184E-02
       2.3888633E-02
       4.4860085E-02
       1.4459388E-02
       5.4451435E-02
       0.0000000E+00
       0.0000000E+00
       2.4649850E-02
       1.7709791E-02
       3.5548925E-02
       3.2346857E-02
       2.5868041E-02
       4.2815455E-02
       3.6728740E-02
       2.1600997E-02
       4.6591681E-03
       3.3726866E-02
       4.7259063E-02
       5.8183225E-02
       1.1597795E-02
       3.2279606E-02
       4.1361124E-02
       2.1275824E-02
       1.4899217E-02
       2.7519233E-02
       2.1872230E-02
       5.0344622E-02
       3.0761951E-02
       1.5567890E-02
       0.0000000E+00
       2.7906814E-02
       8.3922908E-03
       1.9270791E-02
       3.4001656E-02
       6.1838788E-02
       5.4505402E-02
       5.7662512E-02
       2.3346230E-02
       9.0652061E-05
       0.0000000E+00
       3.8536613E-02
       4.5269892E-02
       3.8780965E-02
       0.0000000E+00
       2.3102284E-02
       1.7256692E-02
       0.0000000E+00
       4.8481515E-03
       4.2910076E-02
       5.2652890E-02
       1.2099172E-02
       2.2295484E-02
       0.0000000E+00
       0.0000000E+00
       4.8046528E-03
       7.8599003E-03
       1.1606220E-02
       5.7475273E-02
       4.4403414E-02
       6.0123018E-02
       6.1932221E-02
       5.8412974E-02
       5.3688975E-02
       5.1584797E-02
       4.3063119E-02
       5.2270150E-02
       3.2999994E-02
       3.6572498E-02
       2.3956503E-02
       1.0953115E-02
       5.0107406E-02
       0.0000000E+00
       4.1665570E-02
       2.7937512E-02
       3.0964561E-02
       1.4160983E-02
       3.8952383E-02
       1.6810195E-03
       4.0423095E-02
       4.5417547E-02
       5.9756040E-02
       6.1407253E-06
       1.4248892E-02
       3.5432824E-02
       2.0387542E-02
       2.2371978E-02
       1.4398540E-02
       4.8915732E-02
       7.2279142E-03
       1.4897879E-03
       1.3698782E-02
       5.6605803E-02
       9.7252943E-03
       4.7924764E-04
       0.0000000E+00
       1.6754361E-03
       1.4830792E-03
       1.6987466E-02
       6.0124936E-02
       5.2985442E-02
       4.4068144E-02
       7.2492983E-03
       5.2637821E-02
       3.7957975E-02
       3.8606667E-02
       3.2816911E-02
       0.0000000E+00
       0.0000000E+00
       0.0000000E+00
       0.0000000E+00
       4.2553079E-03
       9.0464522E-03
       1.7679719E-03
       4.5471086E-03
       3.5845786E-04
       7.4634048E-03
       1.1196566E-02
       9.5127921E-03
       1.6663715E-02
       2.3732623E-03
       3.2657703E-03
       7.3742313E-03
       4.6779897E-03
       9.5932730E-03
       7.2814316E-03
       4.6229269E-03
       1.2418616E-02
       3.2634710E-03
       4.7349795E-03
       1.8390294E-03
       5.3346497E-03
       1.0364219E-02
       3.2169385E-03
       4.4545881E-03
       1.2857181E-02
       1.3193466E-02
       1.0180315E-02
       1.1889697E-02
       1.7744181E-02
       1.4145162E-02
       2.0224973E-02
       1.0447591E-02
       1.4470185E-02
       1.8594524E-02
       2.1610151E-02
       2.6923918E-02
       1.8212483E-02
       6.2837326E-03
       1.2691838E-02
       2.3103254E-02
       2.4436924E-02
       2.6490295E-02
       1.7437451E-02
       2.8816990E-02
       3.1167720E-02
       2.2280992E-02
       7.7967594E-03
       5.9881191E-02
       3.0433745E-02
       6.1969782E-02
       6.0116440E-02
       4.7389030E-02
       4.8206177E-02
       5.7618028E-02
       5.7987774E-02
       5.8879712E-02
       3.2006518E-02
       1.4917927E-03
       3.6126174E-02
       3.8500389E-02
       1.7492398E-02
       1.2516132E-02
       8.4756193E-03
       4.6033393E-03
       1.1255873E-02
       5.5762277E-02
       3.7597071E-02
       4.2214304E-02
       4.5707164E-02
       4.4110443E-02
       4.1463802E-02
       4.5621682E-02
       3.5184683E-02
       4.4384330E-03
       3.7631581E-02
       3.1355293E-03
       2.8092615E-02
       6.0493282E-02
       5.8768917E-02
       5.9658108E-02
       5.8308902E-02
       5.5933617E-02
       5.2838612E-02
       5.5233383E-02
       6.9379652E-04
       5.8880431E-02
       5.7224793E-02
       5.7259037E-02
       5.4422507E-02
       5.4527223E-02
       5.1247654E-02
       4.7248910E-02
       4.1990235E-02
       3.5725986E-02
       4.0100199E-02
       2.1466778E-02
       2.3190512E-02
       1.9267574E-02
       2.7131654E-02
       2.1454991E-02
       1.6746249E-02
       1.4453923E-02
       1.3135229E-02
       5.6190376E-03
       6.0249756E-03
       1.7809777E-02
       4.9333787E-03
       1.9377056E-02
       3.8788645E-02
       5.7526790E-02
       5.8427529E-02
       5.2676050E-02
       5.1128962E-02
       4.2345590E-02
       3.7622030E-02
       4.0428458E-02
       3.3421843E-02
       2.8454680E-02
       2.6302224E-02
       2.9774803E-02
       2.0910017E-02
       1.5588537E-02
       1.6809799E-02
       1.3305609E-02
       6.6922298E-03
       1.4992755E-02
       5.8509457E-03
       0.0000000E+00
       3.1276988E-03
       1.4791047E-03
       6.1003209E-03
       5.4673654E-03
       1.7713732E-02
       1.7669794E-02
       8.8872844E-03
       3.0562379E-03
       4.9934209E-02
       5.2242064E-02
       4.9038792E-02
       4.6528199E-02
       3.8232805E-02
       4.1322291E-02
       3.8641249E-02
       3.3244675E-02
       3.9476480E-02
       7.6369377E-03
       1.5975440E-02
       4.1802576E-02
       3.8037123E-02
       4.0381604E-02
       2.2917029E-02
       2.9649802E-02
       1.9919973E-02
       2.3706407E-02
       3.5508295E-02
       4.7943471E-02
       1.5397899E-02
       6.1883587E-02
       6.1419075E-02
       2.5157593E-02
       2.9104878E-02
       3.4336060E-02
       3.2398425E-02
       3.8422622E-02
       4.5855641E-02
       2.4599773E-02
       3.6060474E-02
       4.1118087E-02
       4.4609255E-02
       4.7351530E-02
       7.7750180E-03
       1.2094457E-02
       1.4392768E-02
       1.0273907E-02
       1.8596174E-02
       2.3330482E-02
       7.9659868E-03
       4.0921611E-03
       1.2030717E-02
       1.2784844E-02
       1.0731381E-02
       1.6430189E-02
       0.0000000E+00
       0.0000000E+00
       7.4472432E-03
       1.7757811E-03
       0.0000000E+00
       1.2856788E-02
       4.5523515E-03
       1.9523966E-02
       4.5046562E-03
       4.0467312E-03
       2.2738670E-02
       2.7916054E-02
       8.7856816E-03
       4.0852206E-03
       1.1326682E-02
       1.3963093E-02
       1.7817634E-02
       4.4075753E-02
       4.3306182E-02
       4.4341723E-02
       4.6887714E-02
       4.9538737E-02
       2.7474832E-02
       4.6344949E-02
       4.0922279E-03
       4.5294243E-02
       6.1139084E-02
       5.5816363E-02
       5.3109568E-02
       4.5984428E-02
       4.9875797E-02
       4.4435148E-02
       4.6218861E-02
       4.9681897E-02
       4.3806981E-02
       4.2454378E-02
       4.3606625E-02
       3.8081573E-02
       3.3218567E-02
       3.2392147E-02
       3.9751579E-02
       4.8547285E-02
       2.8943759E-02
       5.2457942E-02
       5.4661941E-02
       2.2563150E-02
       6.1148296E-02
       6.1497630E-02
       6.1621821E-02
       0.0000000E+00
       1.4112133E-02
       1.4803678E-02
       2.3255688E-02
       6.8220521E-03
       1.0231792E-02
       1.4952187E-02
       1.2825820E-03
       2.3063045E-02
       2.4597607E-02
       3.0821832E-02
       3.3767180E-02
       2.6978634E-02
       3.3594762E-02
       3.8569072E-02
       3.6100920E-02
       2.9416000E-02
       4.1128613E-02
       1.7907060E-02
       2.5404347E-02
       2.8322478E-02
       3.2626201E-02
       2.6540325E-02
       3.6225261E-02
       2.9950848E-02
       6.1164858E-02
       3.5757857E-02
       3.1201932E-02
       3.0148442E-02
       3.1966459E-02
       2.7177187E-02
       2.3499795E-02
       1.9072064E-02
       5.9838948E-02
       5.8963862E-02
       4.5108493E-02
       3.2898584E-02
       2.8222707E-02
       3.1393107E-02
       3.0606082E-02
       2.4005365E-02
       2.2016190E-02
       1.6784982E-02
       2.4478747E-02
       2.6449392E-02
       2.3294230E-02
       3.4769171E-02
       5.6959456E-02
       5.9259579E-02
       5.8742093E-02
       5.5834427E-02
       5.9322170E-02
       5.5345846E-02
       5.3828302E-02
       5.2790861E-02
       5.0642356E-02
       5.3882063E-02
       5.1731375E-02
       4.7753479E-02
       1.9361335E-02
       2.6247401E-02
       2.4855583E-02
       1.8112257E-02
       1.1313753E-02
       7.1871223E-03
       8.6299248E-03
       1.1045249E-02
       1.9186317E-03
       1.9971534E-02
       3.6773979E-02
       3.7806954E-02
       1.6211305E-02
       1.5808328E-02
       1.2652998E-02
       7.3976761E-03
       3.6016379E-02
       2.9879615E-02
       2.8330927E-02
       1.6451396E-02
       6.2233662E-02
       3.4215157E-02
       3.1226274E-02
       2.9764287E-02
       5.9396163E-03
       5.4963273E-02
       4.7923984E-02
       5.1957776E-02
       3.8411744E-02
       5.0572979E-02
       2.7064721E-02
       2.3808160E-02
       1.6734552E-02
       1.8652752E-02
       2.5360875E-02
       2.9687669E-02
       2.4893096E-02
       3.4064599E-02
       3.4401054E-02
       6.2219248E-02
       3.1735208E-03
       2.6702550E-02
       2.5236169E-02
       2.7151664E-02
       2.5524770E-02
       1.9723554E-02
       2.6571948E-02
       2.9989246E-02
       3.6152222E-02
       4.1391196E-02
       2.5541742E-02
       7.1334787E-03
       1.3442686E-03
       1.8509493E-02
       5.6756924E-03
       1.7167399E-02
       1.0707338E-02
       6.2015684E-02
       3.0476977E-02
       3.9634435E-02
       3.4240325E-02
       4.5698153E-02
       4.6296617E-02
       4.8199057E-02
       4.4604363E-02
       4.8668284E-02
       5.1499826E-02
       4.0694326E-02
       5.0211147E-02
       5.1604267E-02
       1.6697146E-03
       2.7572643E-03
       2.7849928E-02
       4.7871039E-03
       5.5145893E-02
       5.4139512E-02
       5.4725112E-02
       5.2928726E-02
       5.1483793E-02
       5.0486620E-02
       5.4652940E-02
       5.6514793E-02
       4.8687801E-02
       7.3705132E-03
       1.3276073E-02
       2.0668291E-02
       3.2613895E-02
       5.0011775E-02
       4.6977492E-02
       5.1211035E-02
       3.8568509E-02
       2.9100855E-02
       2.5582887E-02
       2.6616329E-02
       2.0783945E-02
       2.3036241E-02
       4.0053954E-02
       3.5868125E-02
       3.8321379E-02
       4.3194891E-02
       3.4606910E-02
       7.3821115E-03
       9.2663493E-03
       1.3016830E-02
       7.2887511E-03
       5.3951088E-02
       5.8056158E-02
       5.8336874E-02
       5.5778632E-02
       5.8015384E-02
       4.0212749E-02
       3.3235131E-02
       4.0157431E-02
       3.0393851E-02
       3.3939520E-02
       4.0035074E-02
       2.7551605E-02
       2.5857721E-02
       4.2049421E-02
       4.1352959E-02
       6.9830520E-03
       3.9089380E-03
       1.6724748E-02
       2.1950313E-02
       1.0857114E-02
       4.5640503E-03
       2.9646158E-03
       4.6354656E-03
       8.2773042E-03
       0.0000000E+00
       6.3305877E-04
       1.7218858E-03
       5.0648791E-03
       3.7097838E-02
       3.6403970E-02
       3.7381420E-02
       3.5918241E-02
       3.6137661E-02
       2.0878537E-02
       2.0761329E-02
       2.6242948E-02
       1.0998249E-02
       7.3232330E-03
       5.0669072E-03
       4.8767504E-02
       5.0446425E-02
       4.9955095E-02
       4.6668263E-02
       9.4382116E-03
       4.7180852E-03
       5.4559369E-03
       0.0000000E+00
       1.7273764E-03
       6.3236218E-04
       3.9623154E-03
       4.2371972E-04
       1.9742936E-02
       1.3337523E-02
       6.6224946E-03
       2.2105983E-02
       2.0371448E-02
       1.4197611E-02
       1.6371871E-02
       2.3005007E-02
       1.9031724E-02
       2.4287956E-03
       4.3538807E-02
       3.9213176E-02
       4.9495582E-02
       3.7818561E-02
       1.3990687E-02
       1.8920948E-02
       6.9015015E-03
       8.4993930E-03
       5.4923561E-03
       5.4357528E-02
       4.8239222E-03
       1.3085655E-03
       5.6259477E-03
       5.9506309E-03
       1.1242909E-02
       1.5468186E-02
       1.5747922E-02
       4.7138788E-02
       5.0513876E-02
       5.9477470E-02
       5.1319815E-02
       2.6189931E-03
       1.8497753E-02
       4.7031191E-02
       5.6852334E-02
       1.6671161E-02
       2.0667905E-02
       1.9015579E-02
       3.3598101E-02
       5.1585675E-02
       5.3708267E-02
       3.0209782E-02
       4.2391262E-02
       4.4755396E-02
       1.4807152E-02
       1.2137040E-02
       2.6615527E-03
       7.1280571E-04
       5.9424732E-03
       1.1642851E-02
       5.6887278E-03
       0.0000000E+00
       4.4260299E-04
       7.9720833E-03
       7.9120584E-03
       6.9873592E-04
       0.0000000E+00
       1.7733382E-03
       0.0000000E+00
       4.8905704E-04
       0.0000000E+00
       1.8134561E-02
       4.6420080E-02
       2.9990944E-02
       5.5519783E-02
       3.2144040E-03
       5.5834897E-02
       5.6495534E-02
       3.5136217E-02
       2.4640277E-02
       2.1290969E-02
       2.6543730E-02
       5.2549817E-02
       5.2226135E-02
       2.3689744E-02
       4.0406731E-02
       3.7762063E-02
       3.8216862E-02
       3.7936186E-02
       3.5290227E-02
       3.2203208E-02
       2.1767416E-02
       1.2023975E-02
       1.0573548E-02
       5.2348397E-02
       3.2628995E-02
       0.0000000E+00
       2.0958710E-02
       1.8451365E-02
       1.2914900E-02
       4.7340748E-02
       4.5882097E-02
       4.2505124E-02
       4.0175883E-02
       3.5893297E-02
       6.0851348E-02
       5.9777393E-02
       5.2841369E-02
       4.3165884E-02
       4.8146130E-02
       5.0812880E-02
       3.9995903E-02
       5.0379088E-02
       3.1727687E-02
       3.5867674E-02
       3.2600636E-02
       3.9158404E-02
       1.2036449E-02
       3.0448211E-02
       5.2790814E-02
       1.5328625E-02
       2.0613712E-02
       1.2522636E-02
       4.6335004E-02
       4.1656407E-02
       1.5229836E-02
       8.9116840E-03
       5.4679518E-02
       4.8711643E-02
       2.9039984E-02
       3.1382723E-02
       3.7545327E-02
       4.8304771E-02
       3.6761558E-02
       5.8866586E-02
       5.9988195E-02
       5.5172762E-02
       3.2330905E-02
       1.4634663E-02
       5.8213646E-02
       6.1724098E-02
       6.1089409E-02
       5.7666244E-02
       5.3008530E-02
       5.4067223E-02
       5.1982089E-02
       5.6787402E-02
       5.2456943E-02
       3.3683491E-03
       2.8268006E-02
       3.4717346E-02
       2.6664249E-02
       4.2948592E-02
       4.8621204E-02
       5.9490241E-02
       3.4878927E-03
       1.1450284E-02
       4.6816359E-02
       4.5546503E-02
       3.7599431E-02
       5.8796303E-03
       1.4630813E-02
       1.9260232E-02
       1.7114928E-02
       2.0380424E-02
       1.7894682E-02
       2.4412779E-02
       2.1114354E-02
       2.5247249E-02
       5.9899228E-02
       4.2976268E-03
       4.2999098E-02
       4.1865206E-02
       2.9554004E-02
       5.8661087E-02
       5.1959597E-02
       1.8205264E-02
       3.8216293E-02
       2.1442919E-02
       2.4557864E-02
       7.8194198E-04
       3.3705554E-02
       3.5389868E-02
       3.4101155E-02
       3.9605172E-02
       3.6054491E-02
       1.2765542E-02
       2.1516082E-02
       4.0572625E-02
       5.2093225E-02
       4.3615872E-02
       4.0717957E-02
       3.8243189E-02
       4.6660771E-02
       2.9071438E-02
       2.0521705E-02
       3.6278152E-03
       3.0315514E-02
       3.4818269E-02
       6.1298647E-02
       1.1109196E-02
       2.8170276E-02
       2.6670658E-02
       5.3801917E-02
       4.5117033E-02
       2.2148217E-02
       2.4426623E-02
       3.6018320E-02
       0.0000000E+00
       5.2009438E-02
       4.3969674E-02
       5.2765243E-03
       5.2273596E-02
       1.7116885E-02
       3.9202078E-02
       3.7323628E-02
       3.7979554E-02
       9.8615149E-03
       6.9764477E-03