# vtk DataFile Version 3.0
# Solution du M1 TR
ASCII
DATASET UNSTRUCTURED_GRID
POINTS     69  float
0.0000000E+00  0.0000000E+00  0.0000000E+00
0.0000000E+00  0.1000000E+01  0.0000000E+00
0.1000000E+01  0.1000000E+01  0.0000000E+00
0.1000000E+01  0.0000000E+00  0.0000000E+00
0.5000000E+00  0.5000000E+00  0.0000000E+00
0.0000000E+00  0.5000000E+00  0.0000000E+00
0.5000000E+00  0.0000000E+00  0.0000000E+00
0.2500000E+00  0.5000000E+00  0.0000000E+00
0.2500000E+00  0.9687500E+00  0.0000000E+00
0.5000000E+00  0.1000000E+01  0.0000000E+00
0.0000000E+00  0.2500000E+00  0.0000000E+00
0.3750000E+00  0.2500000E+00  0.0000000E+00
0.2500000E+00  0.3125000E-01  0.0000000E+00
0.1250000E+00  0.7500000E+00  0.0000000E+00
0.3911638E+00  0.7429957E+00  0.0000000E+00
0.1000000E+01  0.5000000E+00  0.0000000E+00
0.7500000E+00  0.0000000E+00  0.0000000E+00
0.6562500E+00  0.2656250E+00  0.0000000E+00
0.7500000E+00  0.4973958E+00  0.0000000E+00
0.8723823E+00  0.7500000E+00  0.0000000E+00
0.7500000E+00  0.9700452E+00  0.0000000E+00
0.6322989E+00  0.7103680E+00  0.0000000E+00
0.9186790E+00  0.2500000E+00  0.0000000E+00
0.5008484E+00  0.6462514E+00  0.0000000E+00
0.6257190E+00  0.5677212E+00  0.0000000E+00
0.5266793E+00  0.8371547E+00  0.0000000E+00
0.7663311E+00  0.6454318E+00  0.0000000E+00
0.7376584E+00  0.8191260E+00  0.0000000E+00
0.1250000E+00  0.3750000E+00  0.0000000E+00
0.1760417E+00  0.1989583E+00  0.0000000E+00
0.1250000E+00  0.5937500E+00  0.0000000E+00
0.6250000E+00  0.1052390E+00  0.0000000E+00
0.0000000E+00  0.7500000E+00  0.0000000E+00
0.1145833E+00  0.9010417E+00  0.0000000E+00
0.2599627E+00  0.8179678E+00  0.0000000E+00
0.3750000E+00  0.4062500E+00  0.0000000E+00
0.3854167E+00  0.9895833E-01  0.0000000E+00
0.8750000E+00  0.9756571E-01  0.0000000E+00
0.7926728E+00  0.3452888E+00  0.0000000E+00
0.1000000E+01  0.7500000E+00  0.0000000E+00
0.6241122E+00  0.4134706E+00  0.0000000E+00
0.8850551E+00  0.9011034E+00  0.0000000E+00
0.3750000E+00  0.5738533E+00  0.0000000E+00
0.9361911E+00  0.6250000E+00  0.0000000E+00
0.8748313E+00  0.5148913E+00  0.0000000E+00
0.1406250E+00  0.4843750E+00  0.0000000E+00
0.7508108E+00  0.1278183E+00  0.0000000E+00
0.3906250E-02  0.6250000E+00  0.0000000E+00
0.5030887E+00  0.1829537E+00  0.0000000E+00
0.2578125E+00  0.3281250E+00  0.0000000E+00
0.3882478E+00  0.8980833E+00  0.0000000E+00
0.1000000E+01  0.8750000E+00  0.0000000E+00
0.6191150E+00  0.9359067E+00  0.0000000E+00
0.6312034E+00  0.8168420E+00  0.0000000E+00
0.2783119E+00  0.1438971E+00  0.0000000E+00
0.6250000E+00  0.0000000E+00  0.0000000E+00
0.0000000E+00  0.8750000E+00  0.0000000E+00
0.8750000E+00  0.0000000E+00  0.0000000E+00
0.9230908E+00  0.3867911E+00  0.0000000E+00
0.8046824E+00  0.2302127E+00  0.0000000E+00
0.5303440E+00  0.3156721E+00  0.0000000E+00
0.4762698E+00  0.4014320E+00  0.0000000E+00
0.1178133E+00  0.7311825E-01  0.0000000E+00
0.7237960E-01  0.1705329E+00  0.0000000E+00
0.1020690E+00  0.2729310E+00  0.0000000E+00
0.0000000E+00  0.3750000E+00  0.0000000E+00
0.1000000E+01  0.2500000E+00  0.0000000E+00
0.9969894E+00  0.1250000E+00  0.0000000E+00
0.2566406E+00  0.6672397E+00  0.0000000E+00
CELLS     118    472
3       7      30      45
3      45       5      28
3       9       1       8
3      16      37      46
3       5      30      47
3       6      48      36
3      49      35       7
3       4      23      42
3      62      12      54
3       1      33       8
3      34      13      68
3      24      23       4
3      50      14      25
3      49      29      54
3      42      35       4
3       0       6      12
3       6      36      12
3      60      11      48
3      24      18      26
3      25       9      50
3      39      43      15
3      37       3      67
3      31      16      46
3      40      38      18
3      51       2      41
3      40      18      24
3       2      20      41
3      25      52       9
3       2       9      20
3      25      14      23
3      26      21      24
3      27      19      41
3      15      58      66
3      44      38      58
3      25      23      21
3      42       7      35
3      23      24      21
3      40      24       4
3      25      21      53
3      50       8      34
3      26      44      43
3      27      26      19
3      27      20      52
3      26      27      21
3      49      64      29
3      10      64      65
3      63       0      62
3      62      54      29
3       7      42      68
3      47      13      32
3      36      48      11
3      55      16      31
3      56      13      33
3      13      56      32
3      34      33      13
3      33      34       8
3      68      13      30
3      49       7      28
3      17      60      48
3      48       6      31
3      11      49      54
3      22      38      59
3      57       3      37
3      17      46      59
3      44      58      15
3      43      39      19
3      61       4      35
3      38      40      17
3      27      41      20
3      51      19      39
3      23      14      42
3      14      34      68
3      19      26      43
3      44      26      18
3      38      44      18
3      15      43      44
3       5      45      30
3      28       7      45
3      37      22      59
3      17      31      46
3      13      47      30
3      32       5      47
3      31      17      48
3      60      17      40
3      49      28      64
3      11      35      49
3       8      50       9
3      14      50      34
3      19      51      41
3      52      25      53
3      20       9      52
3      21      27      53
3      52      53      27
3      12      36      54
3      11      54      36
3      31       6      55
3      33       1      56
3      37      16      57
3      38      22      58
3      66      58      22
3      17      59      38
3      37      59      46
3      61      40       4
3      60      61      11
3      11      61      35
3      40      61      60
3      63      62      29
3       0      12      62
3      64      63      29
3       0      63      10
3      65      64      28
3      63      64      10
3      28       5      65
3      67      22      37
3       3      66      67
3      22      67      66
3       7      68      30
3      14      68      42
CELL_TYPES     118
5
5
5
5
5
5
5
5
5
5
5
5
5
5
5
5
5
5
5
5
5
5
5
5
5
5
5
5
5
5
5
5
5
5
5
5
5
5
5
5
5
5
5
5
5
5
5
5
5
5
5
5
5
5
5
5
5
5
5
5
5
5
5
5
5
5
5
5
5
5
5
5
5
5
5
5
5
5
5
5
5
5
5
5
5
5
5
5
5
5
5
5
5
5
5
5
5
5
5
5
5
5
5
5
5
5
5
5
5
5
5
5
5
5
5
5
5
5
POINT_DATA      69
SCALARS hauteur float
LOOKUP_TABLE DEFAULT
       0.0000000E+00
       0.0000000E+00
       0.0000000E+00
       0.0000000E+00
       6.3140617E-02
       0.0000000E+00
       0.0000000E+00
       4.7561726E-02
       5.5036207E-03
       0.0000000E+00
       0.0000000E+00
       4.4474931E-02
       5.5010326E-03
       2.0996043E-02
       4.5838955E-02
       0.0000000E+00
       0.0000000E+00
       4.4755276E-02
       4.6893540E-02
       2.0994468E-02
       5.2783131E-03
       4.7945071E-02
       1.4083570E-02
       5.7788291E-02
       5.8021487E-02
       3.4381545E-02
       4.1801710E-02
       2.9106897E-02
       2.5894011E-02
       2.2841436E-02
       2.6420086E-02
       2.2033906E-02
       0.0000000E+00
       9.3856752E-03
       2.8886321E-02
       5.7137089E-02
       2.0765448E-02
       9.7758716E-03
       3.7801005E-02
       0.0000000E+00
       5.7781284E-02
       9.3530506E-03
       5.8000576E-02
       1.4170246E-02
       2.7644780E-02
       2.9702820E-02
       2.0516435E-02
       9.2132679E-04
       3.7703435E-02
       4.3029694E-02
       2.1478992E-02
       0.0000000E+00
       1.3670910E-02
       3.4083860E-02
       2.4706692E-02
       0.0000000E+00
       0.0000000E+00
       0.0000000E+00
       1.6827950E-02
       2.7665159E-02
       5.3881082E-02
       6.0223377E-02
       7.4482904E-03
       9.0396869E-03
       1.8341952E-02
       0.0000000E+00
       0.0000000E+00
       3.2392822E-04
       4.2809490E-02
