# vtk DataFile Version 3.0
# Solution du M1 TR
ASCII
DATASET UNSTRUCTURED_GRID
POINTS   3147  float
0.0000000E+00  0.0000000E+00  0.0000000E+00
0.0000000E+00  0.1000000E+01  0.0000000E+00
0.1000000E+01  0.1000000E+01  0.0000000E+00
0.1000000E+01  0.0000000E+00  0.0000000E+00
0.5000000E+00  0.5000000E+00  0.0000000E+00
0.0000000E+00  0.5000000E+00  0.0000000E+00
0.5000000E+00  0.0000000E+00  0.0000000E+00
0.2500000E+00  0.5000000E+00  0.0000000E+00
0.2500000E+00  0.9687500E+00  0.0000000E+00
0.5000000E+00  0.1000000E+01  0.0000000E+00
0.0000000E+00  0.2500000E+00  0.0000000E+00
0.3750000E+00  0.2500000E+00  0.0000000E+00
0.2500000E+00  0.3125000E-01  0.0000000E+00
0.1250000E+00  0.7500000E+00  0.0000000E+00
0.3911638E+00  0.7429957E+00  0.0000000E+00
0.1000000E+01  0.5000000E+00  0.0000000E+00
0.7500000E+00  0.0000000E+00  0.0000000E+00
0.6562500E+00  0.2656250E+00  0.0000000E+00
0.7500000E+00  0.4973958E+00  0.0000000E+00
0.8723823E+00  0.7500000E+00  0.0000000E+00
0.7500000E+00  0.9700452E+00  0.0000000E+00
0.6322989E+00  0.7103680E+00  0.0000000E+00
0.9186790E+00  0.2500000E+00  0.0000000E+00
0.6241122E+00  0.4134706E+00  0.0000000E+00
0.8850551E+00  0.9011034E+00  0.0000000E+00
0.8750000E+00  0.9756571E-01  0.0000000E+00
0.1000000E+01  0.7500000E+00  0.0000000E+00
0.7926728E+00  0.3452888E+00  0.0000000E+00
0.3854167E+00  0.9895833E-01  0.0000000E+00
0.2599627E+00  0.8179678E+00  0.0000000E+00
0.3750000E+00  0.4062500E+00  0.0000000E+00
0.1145833E+00  0.9010417E+00  0.0000000E+00
0.0000000E+00  0.7500000E+00  0.0000000E+00
0.1250000E+00  0.5937500E+00  0.0000000E+00
0.6250000E+00  0.1052390E+00  0.0000000E+00
0.7376584E+00  0.8191260E+00  0.0000000E+00
0.1760417E+00  0.1989583E+00  0.0000000E+00
0.1250000E+00  0.3750000E+00  0.0000000E+00
0.7663311E+00  0.6454318E+00  0.0000000E+00
0.5266793E+00  0.8371547E+00  0.0000000E+00
0.5008484E+00  0.6462514E+00  0.0000000E+00
0.6257190E+00  0.5677212E+00  0.0000000E+00
0.2566406E+00  0.6672397E+00  0.0000000E+00
0.9969894E+00  0.1250000E+00  0.0000000E+00
0.1000000E+01  0.2500000E+00  0.0000000E+00
0.0000000E+00  0.3750000E+00  0.0000000E+00
0.1020690E+00  0.2729310E+00  0.0000000E+00
0.7237960E-01  0.1705329E+00  0.0000000E+00
0.1178133E+00  0.7311825E-01  0.0000000E+00
0.4762698E+00  0.4014320E+00  0.0000000E+00
0.5303440E+00  0.3156721E+00  0.0000000E+00
0.8046824E+00  0.2302127E+00  0.0000000E+00
0.9230908E+00  0.3867911E+00  0.0000000E+00
0.8750000E+00  0.0000000E+00  0.0000000E+00
0.0000000E+00  0.8750000E+00  0.0000000E+00
0.2783119E+00  0.1438971E+00  0.0000000E+00
0.6250000E+00  0.0000000E+00  0.0000000E+00
0.6191150E+00  0.9359067E+00  0.0000000E+00
0.6312034E+00  0.8168420E+00  0.0000000E+00
0.1000000E+01  0.8750000E+00  0.0000000E+00
0.2578125E+00  0.3281250E+00  0.0000000E+00
0.3882478E+00  0.8980833E+00  0.0000000E+00
0.5030887E+00  0.1829537E+00  0.0000000E+00
0.3906250E-02  0.6250000E+00  0.0000000E+00
0.7508108E+00  0.1278183E+00  0.0000000E+00
0.1406250E+00  0.4843750E+00  0.0000000E+00
0.8748313E+00  0.5148913E+00  0.0000000E+00
0.9361911E+00  0.6250000E+00  0.0000000E+00
0.3750000E+00  0.5738533E+00  0.0000000E+00
0.3750000E+00  0.1000000E+01  0.0000000E+00
0.3001743E+00  0.8963449E+00  0.0000000E+00
0.3480054E+00  0.8197554E+00  0.0000000E+00
0.1698254E+00  0.8289714E+00  0.0000000E+00
0.4371347E+00  0.8214313E+00  0.0000000E+00
0.8282243E+00  0.8297866E+00  0.0000000E+00
0.4772928E+00  0.9126717E+00  0.0000000E+00
0.1634524E+00  0.6718750E+00  0.0000000E+00
0.2128157E+00  0.7436063E+00  0.0000000E+00
0.4961093E+00  0.1010641E+00  0.0000000E+00
0.6250000E+00  0.1000000E+01  0.0000000E+00
0.1250000E+00  0.0000000E+00  0.0000000E+00
0.5722362E+00  0.2379112E+00  0.0000000E+00
0.3424479E+00  0.3281250E+00  0.0000000E+00
0.9424053E+00  0.5493859E+00  0.0000000E+00
0.6101384E+00  0.3330173E+00  0.0000000E+00
0.9321698E+00  0.4633520E+00  0.0000000E+00
0.3358283E+00  0.6839399E+00  0.0000000E+00
0.4116682E+00  0.6556927E+00  0.0000000E+00
0.6250000E-01  0.6893921E+00  0.0000000E+00
0.8765666E+00  0.6733497E+00  0.0000000E+00
0.8473113E+00  0.6023785E+00  0.0000000E+00
0.7637566E+00  0.4241543E+00  0.0000000E+00
0.8381824E+00  0.4279440E+00  0.0000000E+00
0.1000000E+01  0.3750000E+00  0.0000000E+00
0.4903282E+00  0.7448741E+00  0.0000000E+00
0.5699048E+00  0.7629687E+00  0.0000000E+00
0.6638849E+00  0.4901900E+00  0.0000000E+00
0.1000000E+01  0.6250000E+00  0.0000000E+00
0.7331323E+00  0.7291651E+00  0.0000000E+00
0.8071726E+00  0.7100728E+00  0.0000000E+00
0.2866293E+00  0.5835493E+00  0.0000000E+00
0.6867445E+00  0.6519537E+00  0.0000000E+00
0.7126852E+00  0.5764312E+00  0.0000000E+00
0.4098050E+00  0.4900516E+00  0.0000000E+00
0.3306035E+00  0.5062857E+00  0.0000000E+00
0.4590292E+00  0.5733658E+00  0.0000000E+00
0.5827105E+00  0.6452264E+00  0.0000000E+00
0.5424884E+00  0.5739198E+00  0.0000000E+00
0.2055377E+00  0.3916016E+00  0.0000000E+00
0.2842371E+00  0.4154412E+00  0.0000000E+00
0.1775174E+00  0.9444444E+00  0.0000000E+00
0.2500000E+00  0.1000000E+01  0.0000000E+00
0.6250000E-01  0.9565515E+00  0.0000000E+00
0.1250000E+00  0.1000000E+01  0.0000000E+00
0.5625000E+00  0.5261949E-01  0.0000000E+00
0.3224826E+00  0.5555556E-01  0.0000000E+00
0.3533462E+00  0.1726266E+00  0.0000000E+00
0.4375000E+00  0.4344846E-01  0.0000000E+00
0.3750000E+00  0.0000000E+00  0.0000000E+00
0.2500000E+00  0.0000000E+00  0.0000000E+00
0.6830520E+00  0.8822521E+00  0.0000000E+00
0.9274068E+00  0.8214683E+00  0.0000000E+00
0.5877997E+00  0.8725813E+00  0.0000000E+00
0.8719553E+00  0.1809132E+00  0.0000000E+00
0.7459677E-01  0.5307460E+00  0.0000000E+00
0.7069791E+00  0.3758855E+00  0.0000000E+00
0.6429465E+00  0.1849796E+00  0.0000000E+00
0.7340614E+00  0.2890171E+00  0.0000000E+00
0.7211336E+00  0.2088007E+00  0.0000000E+00
0.8524368E+00  0.2933612E+00  0.0000000E+00
0.7224151E-01  0.8222415E+00  0.0000000E+00
0.6875000E+00  0.5261949E-01  0.0000000E+00
0.2599106E-01  0.8959510E-01  0.0000000E+00
0.9375000E+00  0.9563951E+00  0.0000000E+00
0.8221702E+00  0.9446692E+00  0.0000000E+00
0.7500000E+00  0.1000000E+01  0.0000000E+00
0.8750000E+00  0.1000000E+01  0.0000000E+00
0.6445312E-01  0.4394531E+00  0.0000000E+00
0.2002065E+00  0.1036461E+00  0.0000000E+00
0.1875000E+00  0.5468750E+00  0.0000000E+00
0.4519794E+00  0.2411886E+00  0.0000000E+00
0.4380560E+00  0.3174094E+00  0.0000000E+00
0.5478384E+00  0.4363424E+00  0.0000000E+00
0.8125000E+00  0.4878285E-01  0.0000000E+00
0.9375000E+00  0.4878285E-01  0.0000000E+00
0.3956900E-01  0.3125000E+00  0.0000000E+00
0.1861416E+00  0.2830309E+00  0.0000000E+00
0.2658988E+00  0.2357703E+00  0.0000000E+00
0.8133374E+00  0.4871066E+00  0.0000000E+00
0.4499011E+00  0.1571374E+00  0.0000000E+00
0.6848779E+00  0.7668523E+00  0.0000000E+00
0.4375000E+00  0.9696350E+00  0.0000000E+00
0.5188453E+00  0.6980436E+00  0.0000000E+00
0.4270582E+00  0.4337574E+00  0.0000000E+00
0.4403114E+00  0.7668799E+00  0.0000000E+00
0.4605837E+00  0.6918287E+00  0.0000000E+00
0.1108396E-01  0.1875000E+00  0.0000000E+00
0.1225513E+00  0.8035974E+00  0.0000000E+00
0.9741512E-02  0.8125000E+00  0.0000000E+00
0.0000000E+00  0.1250000E+00  0.0000000E+00
0.1953125E-02  0.4375000E+00  0.0000000E+00
0.8796192E+00  0.8471332E+00  0.0000000E+00
0.5806149E-01  0.2301874E+00  0.0000000E+00
0.4847709E+00  0.3468645E+00  0.0000000E+00
0.3035034E+00  0.6368139E+00  0.0000000E+00
0.9900545E+00  0.8125000E+00  0.0000000E+00
0.7770886E-01  0.1137161E+00  0.0000000E+00
0.7185584E+00  0.9227791E+00  0.0000000E+00
0.7804510E+00  0.8456131E+00  0.0000000E+00
0.5816902E+00  0.1768445E+00  0.0000000E+00
0.6774326E+00  0.1040894E+00  0.0000000E+00
0.2864003E-04  0.6875000E+00  0.0000000E+00
0.1687286E+00  0.8853375E+00  0.0000000E+00
0.5956060E+00  0.4570232E+00  0.0000000E+00
0.5151529E+00  0.2387540E+00  0.0000000E+00
0.3355001E+00  0.7622114E+00  0.0000000E+00
0.5625000E+00  0.9931222E+00  0.0000000E+00
0.3930592E+00  0.7945743E+00  0.0000000E+00
0.3920808E+00  0.8466124E+00  0.0000000E+00
0.8290497E+00  0.8874309E+00  0.0000000E+00
0.1671168E+00  0.7222040E+00  0.0000000E+00
0.6214412E+00  0.2299472E+00  0.0000000E+00
0.1000000E+01  0.5625000E+00  0.0000000E+00
0.3831482E+00  0.6950537E+00  0.0000000E+00
0.5769518E+00  0.8167607E+00  0.0000000E+00
0.6250000E-01  0.7519216E+00  0.0000000E+00
0.8903856E+00  0.5678560E+00  0.0000000E+00
0.8228164E+00  0.6539910E+00  0.0000000E+00
0.6341505E+00  0.6575134E+00  0.0000000E+00
0.7290288E+00  0.6790901E+00  0.0000000E+00
0.3589799E+00  0.6301654E+00  0.0000000E+00
0.2930259E+00  0.4682102E+00  0.0000000E+00
0.5860065E+00  0.5963699E+00  0.0000000E+00
0.5009248E+00  0.5486393E+00  0.0000000E+00
0.5005975E+00  0.5979554E+00  0.0000000E+00
0.3624978E+00  0.4605710E+00  0.0000000E+00
0.2528339E+00  0.3772882E+00  0.0000000E+00
0.3688523E+00  0.9473815E+00  0.0000000E+00
0.3180193E+00  0.9622980E+00  0.0000000E+00
0.5514588E-01  0.8974623E+00  0.0000000E+00
0.1875000E+00  0.1000000E+01  0.0000000E+00
0.5625000E+00  0.0000000E+00  0.0000000E+00
0.3286955E+00  0.1138755E+00  0.0000000E+00
0.5104550E+00  0.5100945E-01  0.0000000E+00
0.6529980E+00  0.3670133E+00  0.0000000E+00
0.7421926E+00  0.3392079E+00  0.0000000E+00
0.9445935E+00  0.8971487E+00  0.0000000E+00
0.8125000E+00  0.1000000E+01  0.0000000E+00
0.7634497E+00  0.8929811E+00  0.0000000E+00
0.2208019E+00  0.1595872E+00  0.0000000E+00
0.3125000E+00  0.0000000E+00  0.0000000E+00
0.2063194E+00  0.6153086E+00  0.0000000E+00
0.2413644E+00  0.5535900E+00  0.0000000E+00
0.9375000E+00  0.0000000E+00  0.0000000E+00
0.4081568E+00  0.1990040E+00  0.0000000E+00
0.9984947E+00  0.6250000E-01  0.0000000E+00
0.1480720E+00  0.2449614E+00  0.0000000E+00
0.5596593E+00  0.3730253E+00  0.0000000E+00
0.3936018E+00  0.3526551E+00  0.0000000E+00
0.4976452E+00  0.4484264E+00  0.0000000E+00
0.7565694E+00  0.2442398E+00  0.0000000E+00
0.9593395E+00  0.3125000E+00  0.0000000E+00
0.9023280E+00  0.3228164E+00  0.0000000E+00
0.8592925E+00  0.3616068E+00  0.0000000E+00
0.8125000E+00  0.0000000E+00  0.0000000E+00
[...]
POINT_DATA    3147
SCALARS hauteur float
LOOKUP_TABLE DEFAULT
       0.0000000E+00
       0.0000000E+00
       0.0000000E+00
       0.0000000E+00
       9.8514424E-04
       0.0000000E+00
       0.0000000E+00
       1.0566228E-03
       2.2403764E-04
       0.0000000E+00
       0.0000000E+00
       7.7444961E-04
       3.2220198E-04
       1.1667420E-03
       8.8755121E-04
       0.0000000E+00
       0.0000000E+00
       1.3046568E-03
       1.4837198E-03
       3.6001816E-04
       4.8939792E-04
       3.2636607E-03
       7.2635273E-04
       1.0399796E-03
       6.1835638E-04
       2.1784724E-04
       0.0000000E+00
       1.3389708E-03
       7.0184071E-04
       7.2801374E-04
       6.7260690E-04
       2.8137018E-04
       0.0000000E+00
       7.1895673E-04
       7.5281864E-04
       7.5449850E-04
       5.7228028E-04
       1.8413311E-03
       4.5377520E-04
       1.4641829E-03
       1.0742408E-03
       7.7538745E-04
       6.2642128E-04
       9.7358907E-05
       0.0000000E+00
       0.0000000E+00
       1.3505272E-03
       4.0701316E-04
       3.9490008E-04
       1.0828435E-03
       8.8670711E-04
       4.6055773E-04
       1.5570119E-03
       0.0000000E+00
       0.0000000E+00
       4.6772711E-04
       0.0000000E+00
       4.8393901E-04
       3.1442428E-03
       0.0000000E+00
       2.6795776E-03
       4.6537434E-04
       1.0642089E-03
       6.3854054E-05
       5.4467857E-04
       9.9989175E-04
       6.5799988E-04
       6.2968937E-04
       5.1800393E-04
       0.0000000E+00
       2.6383619E-04
       6.5975553E-04
       3.9535460E-04
       1.1202971E-03
       7.3259390E-04
       5.4960208E-04
       9.1819752E-04
       4.1185613E-04
       5.6915945E-04
       0.0000000E+00
       0.0000000E+00
       5.1291450E-04
       2.9302686E-04
       3.5808862E-04
       1.2995054E-03
       2.2029805E-03
       7.7146200E-04
       1.1161953E-03
       6.0035068E-04
       4.7989715E-04
       5.7177605E-04
       6.5990169E-04
       1.4890486E-03
       0.0000000E+00
       2.9191865E-03
       5.7126520E-04
       8.0903562E-04
       0.0000000E+00
       1.9730085E-03
       1.9218756E-03
       2.7645783E-03
       4.6835357E-04
       6.8752941E-04
       5.8101646E-04
       1.3567295E-03
       9.9523676E-04
       9.1182996E-04
       2.0590012E-03
       1.1594901E-03
       8.9321334E-04
       3.5451968E-04
       0.0000000E+00
       1.8344190E-04
       0.0000000E+00
       6.8498610E-04
       3.6843595E-04
       7.1949585E-04
       8.4229460E-04
       0.0000000E+00
       0.0000000E+00
       4.5441412E-04
       4.3345477E-04
       8.2397499E-04
       6.5737102E-04
       4.5444122E-04
       8.4607186E-04
       4.8016507E-04
       3.8190611E-04
       4.4319136E-04
       6.4884622E-04
       5.2454825E-04
       4.1578848E-04
       9.9967966E-05
       7.0739541E-04
       1.1386784E-03
       0.0000000E+00
       0.0000000E+00
       2.9567930E-04
       6.1919418E-04
       9.5635207E-04
       9.3669537E-04
       1.0065684E-03
       5.9495914E-04
       3.9018044E-04
       1.3713998E-04
       3.7307708E-04
       7.8990992E-04
       1.7654377E-03
       5.4881144E-04
       6.6930637E-04
       6.5226888E-04
       4.3668528E-04
       6.9126661E-04
       2.3429760E-03
       6.6323007E-04
       1.2413956E-03
       2.4600327E-04
       4.2347058E-04
       5.0819086E-04
       0.0000000E+00
       2.4343475E-05
       1.6020937E-03
       3.1103217E-04
       1.0885996E-03
       4.8588768E-04
       2.3335654E-04
       4.4415869E-04
       1.0801850E-03
       6.8272547E-04
       1.1962424E-03
       6.8308733E-04
       4.7018172E-06
       6.0823174E-04
       7.1787939E-04
       7.9095373E-04
       1.0796606E-03
       5.3870861E-04
       8.6139400E-04
       4.8903166E-04
       3.1094879E-04
       1.3583219E-03
       9.8446129E-04
       0.0000000E+00
       3.1903711E-03
       9.2873076E-04
       1.3972194E-03
       1.2920996E-03
       8.6430876E-04
       8.7166627E-04
       6.2634687E-04
       1.2409444E-03
       1.4566718E-03
       7.9518541E-04
       1.6747340E-03
       1.2251022E-03
       2.0240209E-03
       6.6829122E-04
       3.6177445E-04
       1.9580255E-04
       4.8898296E-04
       0.0000000E+00
       0.0000000E+00
       1.4817355E-03
       4.5971231E-04
       6.2190586E-04
       1.3180208E-03
       3.2817162E-04
       0.0000000E+00
       2.1915906E-04
       6.4067241E-04
       0.0000000E+00
       5.1965418E-04
       9.6954205E-04
       0.0000000E+00
       8.0471324E-04
       5.3278812E-06
       6.8059230E-04
       2.7865711E-03
       1.5151397E-03
       7.8825199E-04
       5.3377934E-04
       3.7092916E-04
       9.6696406E-04
       6.8157479E-04
       0.0000000E+00
       6.8503929E-04
       4.1875351E-04
       3.0677236E-04
       6.4731305E-04
       8.8050812E-04
       1.2587435E-03
       1.2603790E-03
       5.7925122E-04
       4.6646170E-04
       2.0435311E-03
       5.4631965E-04
       2.3138131E-03
       3.7551781E-04
       7.0939992E-04
       5.3208625E-04
       5.6675180E-04
       7.1278241E-04
       7.4479879E-04
       1.1040903E-03
       1.1502518E-03
       6.2009651E-04
       1.3682991E-03
       0.0000000E+00
       0.0000000E+00
       2.3694766E-03
       5.2191374E-04
       2.5783293E-03
       9.5269618E-04
       4.5899691E-04
       2.1206506E-03
       1.2487160E-03
       3.5115816E-04
       1.9569905E-03
       7.8702730E-04
       8.9861860E-04
       9.5186437E-04
       3.6775993E-04
       4.1490613E-04
       6.1759517E-05
       6.7744045E-04
       7.8550345E-04
       1.0715230E-03
       5.6785157E-04
       2.1059672E-04
       5.3049190E-04
       2.5036838E-03
       5.5991864E-04
       1.2799731E-03
       1.6781142E-05
       5.2999690E-04
       2.1418163E-03
       3.0490831E-04
       3.8894288E-04
       3.9277713E-04
       6.0895445E-04
       1.7367085E-03
       4.5837034E-04
       6.2523246E-04
       2.2907184E-04
       5.1800493E-04
       3.7310925E-04
       5.7915867E-04
       4.5714599E-04
       1.2312435E-03
       1.2617394E-04
       0.0000000E+00
       5.7857909E-04
       9.8298747E-05
       0.0000000E+00
       2.3750356E-04
       0.0000000E+00
       1.4709137E-04
       3.9099054E-04
       5.0138210E-04
       2.1479795E-04
       0.0000000E+00
       5.6364904E-04
       7.8396687E-05
       6.7270570E-04
       1.7085898E-04
       2.6988231E-04
       6.9908191E-04
       9.6732911E-04
       7.9849444E-04
       6.1774161E-04
       9.4831194E-04
       7.6744393E-04
       1.0542429E-03
       1.2838005E-03
       5.4659942E-04
       1.1796274E-03
       2.6497177E-04
       6.1715881E-04
       3.3956713E-03
       3.3660688E-04
       2.7254099E-03
       1.8311969E-03
       9.1411790E-04
       3.2843105E-04
       1.1877115E-03
       3.5068702E-04
       2.5164595E-04
       1.5366468E-03
       3.4860806E-04
       3.1230136E-04
       9.0062375E-04
       1.0832105E-03
       8.3049704E-04
       1.9039579E-04
       3.7143078E-04
       1.0182316E-03
       3.6106453E-04
       1.0327722E-03
       9.3464154E-04
       1.1654185E-03
       9.0944396E-04
       1.6270571E-03
       1.5966424E-04
       2.9616392E-04
       9.0533299E-04
       1.3364095E-03
       3.9697090E-04
       6.0779493E-04
       8.9136700E-04
       5.9734839E-04
       2.9055047E-04
       4.4609036E-04
       5.5776943E-05
       4.6215850E-04
       9.5440667E-05
       0.0000000E+00
       2.1295075E-04
       2.5775728E-03
       3.9191801E-04
       3.9796767E-04
       2.7509682E-03
       2.3234203E-03
       8.7875800E-04
       9.6985882E-04
       5.4926511E-04
       4.5006160E-04
       1.1051264E-03
       1.1501259E-03
       8.6708165E-04
       7.8865687E-04
       4.4515312E-04
       7.2516697E-04
       2.5730243E-03
       4.7849307E-04
       2.5801488E-04
       4.0394553E-04
       0.0000000E+00
       3.5174986E-04
       2.7917437E-04
       1.8386520E-04
       7.2472861E-04
       2.2096414E-04
       1.4674983E-04
       1.1383143E-03
       5.1949652E-04
       7.5879964E-04
       1.3801710E-03
       9.8150763E-04
       5.0480360E-04
       8.2490794E-04
       5.0054187E-04
       2.2482147E-03
       2.4013079E-04
       8.4397118E-04
       1.1711470E-03
       6.1258894E-04
       3.8392575E-04
       5.5566207E-04
       6.6844804E-04
       1.0493443E-03
       1.3896307E-03
       8.4673151E-04
       4.5177094E-04
       6.2037876E-04
       3.2243543E-04
       1.6831917E-03
       4.5869478E-04
       4.8715829E-04
       9.5951536E-04
       4.7540287E-04
       2.2999356E-03
       6.2371629E-04
       1.0076282E-03
       7.2916074E-04
       5.0388134E-04
       6.0849350E-04
       1.3791970E-03
       5.2173653E-04
       5.3238765E-04
       6.9485558E-04
       1.1995579E-03
       4.6818858E-04
       5.3325166E-04
       5.9527840E-04
       6.1461719E-04
       8.5148752E-04
       7.4493144E-04
       2.0835395E-03
       1.1193024E-03
       5.4850991E-04
       1.0757823E-03
       8.2184883E-04
       7.6151740E-04
       5.7083935E-04
       1.0531942E-04
       6.0660855E-04
       6.3902792E-04
       3.1878302E-04
       6.4811748E-04
       1.1656662E-03
       6.0164160E-04
       1.9596678E-03
       2.8855195E-03
       6.8558684E-04
       7.4669650E-04
       7.3586781E-04
       8.3847663E-04
       7.5599024E-04
       6.4552962E-04
       2.5120778E-04
       8.0409122E-04
       9.0823497E-04
       4.5096098E-04
       9.2068861E-04
       8.5449972E-04
       2.2808514E-04
       1.1521965E-03
       8.6148747E-04
       4.6019749E-04
       3.8952923E-04
       3.1204590E-04
       8.9408882E-04
       4.1209796E-04
       5.4169994E-04
       5.9115678E-04
       3.8698526E-04
       6.3105065E-04
       1.8999385E-03
       1.1638114E-03
       9.0870012E-04
       8.7916375E-04
       5.9015704E-04
       8.1488242E-04
       3.2967923E-04
       4.4220147E-04
       3.2322945E-04
       6.9921732E-04
       3.2331210E-04
       6.2270476E-04
       5.9329621E-04
       1.2152004E-03
       4.7426500E-04
       1.2184103E-03
       2.3390975E-04
       4.2609783E-04
       5.9041339E-04
       1.4628841E-03
       7.0534850E-04
       8.5642032E-04
       5.1097925E-04
       6.3996176E-04
       6.2459683E-04
       6.4607936E-04
       5.4810389E-04
       4.4130647E-04
       4.2453655E-04
       2.3388923E-04
       6.2202507E-04
       5.0494799E-04
       1.5421789E-04
       5.4776868E-04
       8.5213162E-04
       4.4467096E-04
       6.5945016E-04
       4.3002937E-04
       3.8803265E-04
       1.4292009E-03
       1.5220472E-03
       2.5612899E-04
       9.4002095E-04
       9.3144114E-04
       7.8741058E-04
       1.0079996E-03
       4.8484754E-04
       2.7717370E-03
       1.0327374E-03
       4.2180339E-04
       6.6918373E-04
       4.4922393E-04
       6.2709130E-04
       5.2068739E-04
       5.3045767E-04
       4.1221688E-04
       4.3463242E-04
       3.1324943E-04
       7.0907775E-04
       3.7916373E-04
       7.4818243E-04
       8.8219414E-04
       1.0340228E-03
       3.2789195E-04
       3.9342296E-04
       3.0429847E-04
       5.7545604E-04
       3.8370868E-04
       5.0176902E-04
       3.7741735E-04
       1.1894311E-03
       1.2655115E-03
       4.5343696E-04
       1.0088549E-03
       1.0008759E-03
       3.8815275E-04
       1.8396429E-03
       3.7808690E-04
       9.6127015E-04
       1.0489217E-03
       2.1714057E-03
       2.9737079E-04
       6.6436834E-04
       7.4053626E-04
       4.9834275E-04
       5.3819297E-04
       2.6027589E-04
       8.6684688E-04
       3.1725920E-04
       7.6704019E-04
       7.0290262E-04
       2.1235842E-04
       3.6854593E-04
       4.1186996E-04
       3.4129056E-04
       2.2861717E-03
       2.9637893E-04
       5.8426361E-04
       0.0000000E+00
       1.0190620E-03
       8.5296320E-04
       5.7930457E-04
       1.4364833E-03
       6.2037235E-04
       2.5304209E-03
       6.0070603E-04
       8.1290603E-04
       5.0100560E-04
       6.8808298E-04
       3.3918893E-04
       5.1990071E-04
       8.5982014E-04
       5.1188508E-04
       4.1430630E-04
       4.6647840E-04
       7.6781359E-04
       7.2796410E-04
       5.2097132E-04
       2.2134815E-03
       9.4194026E-04
       8.4532852E-04
       3.8647321E-04
       8.1540708E-04
       5.0217512E-04
       1.5280926E-04
       1.5138266E-03
       9.8731278E-04
       3.9941609E-04
       1.3061971E-03
       1.6626140E-03
       7.8732608E-04
       5.9476482E-04
       6.9258992E-04
       8.7790538E-04
       1.7372885E-04
       9.2448305E-04
       1.1106816E-03
       6.5959379E-04
       9.1020940E-04
       3.5054333E-04
       5.6496052E-04
       4.5780796E-04
       1.5761467E-03
       0.0000000E+00
       6.8053695E-05
       2.2368589E-04
       0.0000000E+00
       0.0000000E+00
       5.0078632E-04
       6.0660805E-04
       6.7045902E-04
       1.0925107E-03
       3.0694466E-04
       1.1879254E-04
       4.2296463E-04
       4.3628359E-04
       6.4385885E-04
       6.6671534E-04
       3.7164439E-04
       3.9732511E-04
       3.4309057E-04
       8.0694465E-04
       3.2677829E-04
       5.8489154E-04
       6.6318046E-04
       7.4928954E-04
       6.7578566E-04
       2.4912271E-04
       4.3151284E-04
       8.2152757E-04
       9.3676016E-04
       6.2682949E-04
       1.7255436E-03
       1.6258913E-03
       4.4302452E-04
       6.4873232E-04
       6.0276518E-04
       4.4991465E-04
       7.2259972E-04
       1.8126021E-03
       2.9182025E-04
       7.3315261E-04
       4.3761207E-04
       1.7526857E-03
       2.6971436E-04
       4.2570888E-04
       1.8391728E-03
       7.4117057E-04
       1.4202559E-03
       5.4467163E-04
       2.6880569E-03
       7.9602243E-04
       8.2582081E-04
       2.1646064E-03
       2.0983865E-04
       3.3375825E-04
       4.4938979E-04
       2.2653229E-04
       4.2777099E-04
       1.0744160E-03
       1.7238007E-04
       3.5083227E-04
       0.0000000E+00
       2.4931925E-04
       5.3143552E-04
       1.1557949E-03
       3.2834824E-04
       2.6615291E-04
       4.0606055E-04
       5.2704951E-04
       3.3365260E-04
       8.3194413E-04
       4.9176541E-04
       7.2402855E-04
       5.7022288E-04
       4.7670055E-04
       5.5933717E-04
       3.0014982E-04
       1.1049780E-03
       1.2439807E-03
       5.8140352E-04
       1.1889588E-03
       4.3523802E-04
       1.2784954E-03
       6.9873095E-04
       5.4121445E-04
       2.3031947E-04
       3.6125155E-04
       5.4199049E-04
       6.0461409E-04
       5.8202038E-04
       5.7794825E-04
       7.1470399E-04
       1.0628748E-03
       4.2011124E-04
       9.1634254E-04
       8.7412828E-04
       1.8564500E-03
       8.4089607E-04
       1.1690255E-03
       1.4071703E-03
       3.0442966E-03
       1.1153444E-03
       3.5566605E-03
       1.1590765E-03
       4.8235870E-04
       2.7370752E-04
       8.7927167E-04
       5.2366713E-04
       1.1950335E-03
       7.7686450E-04
       3.8316148E-04
       1.0906552E-03
       6.1814778E-04
       3.5051325E-04
       7.0967602E-04
       7.0402437E-04
       5.8691001E-04
       9.3197599E-04
       6.7143475E-04
       2.2209053E-03
       5.8986283E-04
       9.3496506E-04
       1.0144633E-03
       4.5852649E-04
       7.3896186E-04
       1.0954205E-04
       5.3491355E-04
       6.2992004E-04
       3.2285738E-04
       5.6981019E-04
       5.5173612E-04
       1.3655008E-04
       3.5462917E-04
       1.3126768E-03
       1.5012536E-03
       5.2888930E-04
       1.0149583E-03
       1.2449201E-03
       9.0365275E-04
       2.4240261E-03
       1.7526549E-03
       5.0343039E-04
       3.3730644E-04
       7.3094429E-04
       7.2840014E-04
       4.1881228E-04
       2.4130637E-04
       3.4776384E-04
       6.3873648E-04
       5.1119787E-04
       4.0751862E-04
       8.6814265E-04
       5.4731167E-04
       8.1577862E-04
       1.3943071E-04
       3.0283988E-04
       4.5706006E-04
       1.7682974E-03
       6.7916655E-04
       3.5994857E-04
       2.1320820E-04
       4.3187752E-04
       7.4313144E-04
       3.5018851E-04
       4.3473226E-04
       1.6704182E-04
       3.0664201E-04
       3.7809104E-04
       3.4053894E-04
       2.3955156E-04
       4.2982218E-04
       2.8848037E-04
       1.1299986E-03
       9.5357827E-04
       1.4400913E-04
       2.0416335E-04
       2.9712532E-04
       3.6069786E-04
       1.1255418E-04
       2.9914591E-04
       3.6991609E-04
       3.0912375E-04
       9.2785182E-04
       2.7856289E-04
       7.5685988E-05
       2.7915973E-04
       7.2571740E-05
       3.5628422E-04
       5.3416811E-04
       0.0000000E+00
       0.0000000E+00
       0.0000000E+00
       0.0000000E+00
       1.1097213E-03
       1.2880317E-03
       6.7976671E-04
       6.3963620E-04
       1.1102898E-03
       1.0131005E-03
       7.0823675E-05
       2.2866283E-04
       1.4481833E-04
       3.6634976E-04
       3.9710641E-04
       1.7604847E-04
       2.2153271E-04
       2.1750255E-04
       6.8051155E-05
       2.8550921E-04
       3.9837018E-04
       3.0305008E-04
       4.5559788E-04
       6.3423362E-04
       4.7171554E-04
       6.1096134E-04
       6.6700287E-04
       3.5642701E-04
       1.9915837E-04
       2.5001896E-04
       1.1030739E-04
       9.6418653E-05
       5.7063998E-04
       5.8194631E-04
       9.7260629E-04
       1.4122696E-03
       8.8290705E-04
       4.6857362E-04
       6.8267628E-04
       4.3712221E-04
       7.8520684E-04
       9.5819513E-04
       6.0299730E-04
       5.0109530E-04
       6.4252449E-04
       4.6481713E-04
       1.6568027E-03
       1.9702396E-03
       1.0536354E-03
       1.1121487E-04
       0.0000000E+00
       2.0513940E-04
       4.6736312E-04
       6.0021303E-04
       4.2284595E-04
       9.8450402E-04
       1.9217965E-03
       1.6794588E-03
       2.0162141E-03
       2.0133851E-03
       9.2828901E-04
       4.6973017E-04
       9.3160635E-04
       7.3481171E-04
       6.3594644E-04
       7.4138177E-04
       3.2692777E-04
       1.6034057E-04
       2.1721174E-04
       1.9857210E-04
       3.8610575E-04
       3.5865951E-04
       0.0000000E+00
       6.4856988E-04
       9.9766812E-04
       7.2927828E-04
       4.6994356E-05
       1.8216779E-05
       2.0702802E-05
       1.3740443E-03
       2.4433579E-03
       1.6089826E-03
       3.1171842E-04
       5.4431010E-04
       4.5235029E-04
       1.0806765E-03
       1.0357897E-03
       4.5993715E-04
       4.2077842E-04
       3.7248055E-04
       1.7409260E-04
       4.5179029E-04
       1.5237756E-03
       1.4133711E-03
       5.2154491E-04
       8.7716201E-04
       6.4087961E-04
       5.3752427E-04
       6.2910237E-04
       3.8562777E-04
       5.3752735E-04
       5.5254070E-04
       1.9470189E-04
       7.9321407E-04
       9.8714844E-04
       5.5801063E-04
       1.7563854E-03
       1.7517743E-03
       4.3294841E-04
       5.0463128E-04
       6.3354157E-04
       5.6931694E-04
       1.7841331E-03
       2.7454123E-03
       1.7417695E-03
       1.9396676E-03
       8.2168577E-04
       1.9671073E-03
       2.2729085E-03
       1.1645428E-03
       2.9658149E-04
       3.4705954E-04
       2.1814820E-04
       3.8918616E-04
       5.5825161E-04
       4.8334082E-04
       5.1005922E-04
       1.1992805E-03
       1.0749496E-03
       5.5341500E-04
       4.9224764E-04
       4.3166559E-04
       1.7588447E-03
       1.7220598E-03
       8.4083639E-04
       1.1505584E-03
       1.2254841E-03
       4.4934717E-04
       2.2673597E-04
       5.8149783E-04
       7.4830512E-04
       1.3689757E-04
       1.9475361E-04
       9.8693019E-05
       3.0725136E-04
       3.5955685E-04
       1.7558160E-04
       7.5321368E-04
       1.5707377E-03
       1.5359002E-03
       2.2780763E-04
       4.8168282E-04