# vtk DataFile Version 3.0
# Solution du M1 TR
ASCII
DATASET UNSTRUCTURED_GRID
POINTS   6367  float
0.0000000E+00  0.0000000E+00  0.0000000E+00
0.0000000E+00  0.1000000E+01  0.0000000E+00
0.1000000E+01  0.1000000E+01  0.0000000E+00
0.1000000E+01  0.0000000E+00  0.0000000E+00
0.5000000E+00  0.5000000E+00  0.0000000E+00
0.0000000E+00  0.5000000E+00  0.0000000E+00
0.5000000E+00  0.0000000E+00  0.0000000E+00
0.2500000E+00  0.5000000E+00  0.0000000E+00
0.2500000E+00  0.9687500E+00  0.0000000E+00
0.5000000E+00  0.1000000E+01  0.0000000E+00
0.0000000E+00  0.2500000E+00  0.0000000E+00
0.3750000E+00  0.2500000E+00  0.0000000E+00
0.2500000E+00  0.3125000E-01  0.0000000E+00
0.1250000E+00  0.7500000E+00  0.0000000E+00
0.3911638E+00  0.7429957E+00  0.0000000E+00
0.1000000E+01  0.5000000E+00  0.0000000E+00
0.7500000E+00  0.0000000E+00  0.0000000E+00
0.6562500E+00  0.2656250E+00  0.0000000E+00
0.7500000E+00  0.4973958E+00  0.0000000E+00
0.8723823E+00  0.7500000E+00  0.0000000E+00
0.7500000E+00  0.9700452E+00  0.0000000E+00
0.6322989E+00  0.7103680E+00  0.0000000E+00
0.9186790E+00  0.2500000E+00  0.0000000E+00
0.6241122E+00  0.4134706E+00  0.0000000E+00
0.8850551E+00  0.9011034E+00  0.0000000E+00
0.8750000E+00  0.9756571E-01  0.0000000E+00
0.1000000E+01  0.7500000E+00  0.0000000E+00
0.7926728E+00  0.3452888E+00  0.0000000E+00
0.3854167E+00  0.9895833E-01  0.0000000E+00
0.2599627E+00  0.8179678E+00  0.0000000E+00
0.3750000E+00  0.4062500E+00  0.0000000E+00
0.1145833E+00  0.9010417E+00  0.0000000E+00
0.0000000E+00  0.7500000E+00  0.0000000E+00
0.1250000E+00  0.5937500E+00  0.0000000E+00
0.6250000E+00  0.1052390E+00  0.0000000E+00
0.7376584E+00  0.8191260E+00  0.0000000E+00
0.1760417E+00  0.1989583E+00  0.0000000E+00
0.1250000E+00  0.3750000E+00  0.0000000E+00
0.7663311E+00  0.6454318E+00  0.0000000E+00
0.5266793E+00  0.8371547E+00  0.0000000E+00
0.5008484E+00  0.6462514E+00  0.0000000E+00
0.6257190E+00  0.5677212E+00  0.0000000E+00
0.2566406E+00  0.6672397E+00  0.0000000E+00
0.9969894E+00  0.1250000E+00  0.0000000E+00
0.1000000E+01  0.2500000E+00  0.0000000E+00
0.0000000E+00  0.3750000E+00  0.0000000E+00
0.1020690E+00  0.2729310E+00  0.0000000E+00
0.7237960E-01  0.1705329E+00  0.0000000E+00
0.1178133E+00  0.7311825E-01  0.0000000E+00
0.4762698E+00  0.4014320E+00  0.0000000E+00
0.5303440E+00  0.3156721E+00  0.0000000E+00
0.8046824E+00  0.2302127E+00  0.0000000E+00
0.9230908E+00  0.3867911E+00  0.0000000E+00
0.8750000E+00  0.0000000E+00  0.0000000E+00
0.0000000E+00  0.8750000E+00  0.0000000E+00
0.2783119E+00  0.1438971E+00  0.0000000E+00
0.6250000E+00  0.0000000E+00  0.0000000E+00
0.6191150E+00  0.9359067E+00  0.0000000E+00
0.6312034E+00  0.8168420E+00  0.0000000E+00
0.1000000E+01  0.8750000E+00  0.0000000E+00
0.2578125E+00  0.3281250E+00  0.0000000E+00
0.3882478E+00  0.8980833E+00  0.0000000E+00
0.5030887E+00  0.1829537E+00  0.0000000E+00
0.3906250E-02  0.6250000E+00  0.0000000E+00
0.7508108E+00  0.1278183E+00  0.0000000E+00
0.1406250E+00  0.4843750E+00  0.0000000E+00
0.8748313E+00  0.5148913E+00  0.0000000E+00
0.9361911E+00  0.6250000E+00  0.0000000E+00
0.3750000E+00  0.5738533E+00  0.0000000E+00
0.3750000E+00  0.1000000E+01  0.0000000E+00
0.3001743E+00  0.8963449E+00  0.0000000E+00
0.3480054E+00  0.8197554E+00  0.0000000E+00
0.1698254E+00  0.8289714E+00  0.0000000E+00
0.4371347E+00  0.8214313E+00  0.0000000E+00
0.8282243E+00  0.8297866E+00  0.0000000E+00
0.4772928E+00  0.9126717E+00  0.0000000E+00
0.1634524E+00  0.6718750E+00  0.0000000E+00
0.2128157E+00  0.7436063E+00  0.0000000E+00
0.4961093E+00  0.1010641E+00  0.0000000E+00
0.6250000E+00  0.1000000E+01  0.0000000E+00
0.1250000E+00  0.0000000E+00  0.0000000E+00
0.5722362E+00  0.2379112E+00  0.0000000E+00
0.3424479E+00  0.3281250E+00  0.0000000E+00
0.9424053E+00  0.5493859E+00  0.0000000E+00
0.6101384E+00  0.3330173E+00  0.0000000E+00
0.9321698E+00  0.4633520E+00  0.0000000E+00
0.3358283E+00  0.6839399E+00  0.0000000E+00
0.4116682E+00  0.6556927E+00  0.0000000E+00
0.6250000E-01  0.6893921E+00  0.0000000E+00
0.8765666E+00  0.6733497E+00  0.0000000E+00
0.8473113E+00  0.6023785E+00  0.0000000E+00
0.7637566E+00  0.4241543E+00  0.0000000E+00
0.8381824E+00  0.4279440E+00  0.0000000E+00
0.1000000E+01  0.3750000E+00  0.0000000E+00
0.4903282E+00  0.7448741E+00  0.0000000E+00
0.5699048E+00  0.7629687E+00  0.0000000E+00
0.6638849E+00  0.4901900E+00  0.0000000E+00
0.1000000E+01  0.6250000E+00  0.0000000E+00
0.7331323E+00  0.7291651E+00  0.0000000E+00
0.8071726E+00  0.7100728E+00  0.0000000E+00
0.2866293E+00  0.5835493E+00  0.0000000E+00
0.6867445E+00  0.6519537E+00  0.0000000E+00
0.7126852E+00  0.5764312E+00  0.0000000E+00
0.4098050E+00  0.4900516E+00  0.0000000E+00
0.3306035E+00  0.5062857E+00  0.0000000E+00
0.4590292E+00  0.5733658E+00  0.0000000E+00
0.5827105E+00  0.6452264E+00  0.0000000E+00
0.5424884E+00  0.5739198E+00  0.0000000E+00
0.2055377E+00  0.3916016E+00  0.0000000E+00
0.2842371E+00  0.4154412E+00  0.0000000E+00
0.1775174E+00  0.9444444E+00  0.0000000E+00
0.2500000E+00  0.1000000E+01  0.0000000E+00
0.6250000E-01  0.9565515E+00  0.0000000E+00
0.1250000E+00  0.1000000E+01  0.0000000E+00
0.5625000E+00  0.5261949E-01  0.0000000E+00
0.3224826E+00  0.5555556E-01  0.0000000E+00
0.3533462E+00  0.1726266E+00  0.0000000E+00
0.4375000E+00  0.4344846E-01  0.0000000E+00
0.3750000E+00  0.0000000E+00  0.0000000E+00
0.2500000E+00  0.0000000E+00  0.0000000E+00
0.6830520E+00  0.8822521E+00  0.0000000E+00
0.9274068E+00  0.8214683E+00  0.0000000E+00
0.5877997E+00  0.8725813E+00  0.0000000E+00
0.8719553E+00  0.1809132E+00  0.0000000E+00
0.7459677E-01  0.5307460E+00  0.0000000E+00
0.7069791E+00  0.3758855E+00  0.0000000E+00
0.6429465E+00  0.1849796E+00  0.0000000E+00
0.7340614E+00  0.2890171E+00  0.0000000E+00
0.7211336E+00  0.2088007E+00  0.0000000E+00
0.8524368E+00  0.2933612E+00  0.0000000E+00
0.7224151E-01  0.8222415E+00  0.0000000E+00
0.6875000E+00  0.5261949E-01  0.0000000E+00
0.2599106E-01  0.8959510E-01  0.0000000E+00
0.9375000E+00  0.9563951E+00  0.0000000E+00
0.8221702E+00  0.9446692E+00  0.0000000E+00
0.7500000E+00  0.1000000E+01  0.0000000E+00
0.8750000E+00  0.1000000E+01  0.0000000E+00
0.6445312E-01  0.4394531E+00  0.0000000E+00
0.2002065E+00  0.1036461E+00  0.0000000E+00
0.1875000E+00  0.5468750E+00  0.0000000E+00
0.4519794E+00  0.2411886E+00  0.0000000E+00
0.4380560E+00  0.3174094E+00  0.0000000E+00
0.5478384E+00  0.4363424E+00  0.0000000E+00
0.8125000E+00  0.4878285E-01  0.0000000E+00
0.9375000E+00  0.4878285E-01  0.0000000E+00
0.3956900E-01  0.3125000E+00  0.0000000E+00
0.1861416E+00  0.2830309E+00  0.0000000E+00
0.2658988E+00  0.2357703E+00  0.0000000E+00
0.8133374E+00  0.4871066E+00  0.0000000E+00
0.4499011E+00  0.1571374E+00  0.0000000E+00
0.6848779E+00  0.7668523E+00  0.0000000E+00
0.4375000E+00  0.9696350E+00  0.0000000E+00
0.5188453E+00  0.6980436E+00  0.0000000E+00
0.4270582E+00  0.4337574E+00  0.0000000E+00
0.4403114E+00  0.7668799E+00  0.0000000E+00
0.4605837E+00  0.6918287E+00  0.0000000E+00
0.1108396E-01  0.1875000E+00  0.0000000E+00
0.1225513E+00  0.8035974E+00  0.0000000E+00
0.9741512E-02  0.8125000E+00  0.0000000E+00
0.0000000E+00  0.1250000E+00  0.0000000E+00
0.1953125E-02  0.4375000E+00  0.0000000E+00
0.8796192E+00  0.8471332E+00  0.0000000E+00
0.5806149E-01  0.2301874E+00  0.0000000E+00
0.4847709E+00  0.3468645E+00  0.0000000E+00
0.3035034E+00  0.6368139E+00  0.0000000E+00
0.9900545E+00  0.8125000E+00  0.0000000E+00
0.7770886E-01  0.1137161E+00  0.0000000E+00
0.7185584E+00  0.9227791E+00  0.0000000E+00
0.7804510E+00  0.8456131E+00  0.0000000E+00
0.5816902E+00  0.1768445E+00  0.0000000E+00
0.6774326E+00  0.1040894E+00  0.0000000E+00
0.2864003E-04  0.6875000E+00  0.0000000E+00
0.1687286E+00  0.8853375E+00  0.0000000E+00
0.5956060E+00  0.4570232E+00  0.0000000E+00
0.5151529E+00  0.2387540E+00  0.0000000E+00
0.3355001E+00  0.7622114E+00  0.0000000E+00
0.5625000E+00  0.9931222E+00  0.0000000E+00
0.3930592E+00  0.7945743E+00  0.0000000E+00
0.3920808E+00  0.8466124E+00  0.0000000E+00
0.8290497E+00  0.8874309E+00  0.0000000E+00
0.1671168E+00  0.7222040E+00  0.0000000E+00
0.6214412E+00  0.2299472E+00  0.0000000E+00
0.1000000E+01  0.5625000E+00  0.0000000E+00
0.3831482E+00  0.6950537E+00  0.0000000E+00
0.5769518E+00  0.8167607E+00  0.0000000E+00
0.6250000E-01  0.7519216E+00  0.0000000E+00
0.8903856E+00  0.5678560E+00  0.0000000E+00
0.8228164E+00  0.6539910E+00  0.0000000E+00
0.6341505E+00  0.6575134E+00  0.0000000E+00
0.7290288E+00  0.6790901E+00  0.0000000E+00
0.3589799E+00  0.6301654E+00  0.0000000E+00
0.2930259E+00  0.4682102E+00  0.0000000E+00
0.5860065E+00  0.5963699E+00  0.0000000E+00
0.5009248E+00  0.5486393E+00  0.0000000E+00
0.5005975E+00  0.5979554E+00  0.0000000E+00
0.3624978E+00  0.4605710E+00  0.0000000E+00
0.2528339E+00  0.3772882E+00  0.0000000E+00
0.3688523E+00  0.9473815E+00  0.0000000E+00
0.3180193E+00  0.9622980E+00  0.0000000E+00
0.5514588E-01  0.8974623E+00  0.0000000E+00
0.1875000E+00  0.1000000E+01  0.0000000E+00
0.5625000E+00  0.0000000E+00  0.0000000E+00
0.3286955E+00  0.1138755E+00  0.0000000E+00
0.5104550E+00  0.5100945E-01  0.0000000E+00
0.6529980E+00  0.3670133E+00  0.0000000E+00
0.7421926E+00  0.3392079E+00  0.0000000E+00
0.9445935E+00  0.8971487E+00  0.0000000E+00
0.8125000E+00  0.1000000E+01  0.0000000E+00
0.7634497E+00  0.8929811E+00  0.0000000E+00
0.2208019E+00  0.1595872E+00  0.0000000E+00
0.3125000E+00  0.0000000E+00  0.0000000E+00
0.2063194E+00  0.6153086E+00  0.0000000E+00
0.2413644E+00  0.5535900E+00  0.0000000E+00
0.9375000E+00  0.0000000E+00  0.0000000E+00
0.4081568E+00  0.1990040E+00  0.0000000E+00
0.9984947E+00  0.6250000E-01  0.0000000E+00
0.1480720E+00  0.2449614E+00  0.0000000E+00
0.5596593E+00  0.3730253E+00  0.0000000E+00
0.3936018E+00  0.3526551E+00  0.0000000E+00
0.4976452E+00  0.4484264E+00  0.0000000E+00
0.7565694E+00  0.2442398E+00  0.0000000E+00
0.9593395E+00  0.3125000E+00  0.0000000E+00
0.9023280E+00  0.3228164E+00  0.0000000E+00
0.8592925E+00  0.3616068E+00  0.0000000E+00
0.8125000E+00  0.0000000E+00  0.0000000E+00
[...]
POINT_DATA    6367
SCALARS hauteur float
LOOKUP_TABLE DEFAULT
       0.0000000E+00
       0.0000000E+00
       0.0000000E+00
       0.0000000E+00
       6.0706592E-04
       0.0000000E+00
       0.0000000E+00
       6.8853156E-04
       1.2594595E-04
       0.0000000E+00
       0.0000000E+00
       4.2676001E-04
       1.2309742E-04
       1.6789501E-04
       2.2050544E-04
       0.0000000E+00
       0.0000000E+00
       3.1547033E-04
       1.0801146E-03
       2.7542620E-04
       7.6427343E-05
       1.6363955E-03
       6.5725739E-04
       7.2261078E-04
       3.0572559E-04
       1.6669085E-04
       0.0000000E+00
       3.9922800E-04
       2.2050387E-04
       2.2311679E-04
       5.6570580E-04
       1.1950358E-04
       0.0000000E+00
       3.5775665E-04
       3.0028707E-04
       2.9191547E-04
       3.2814008E-04
       2.7960881E-04
       2.8350098E-04
       5.3407205E-04
       7.3772250E-04
       8.0461058E-04
       8.0058154E-04
       1.1334760E-04
       0.0000000E+00
       0.0000000E+00
       3.6849922E-04
       3.5247042E-04
       2.6059524E-04
       4.1694177E-04
       4.7542706E-04
       2.2534825E-04
       7.6960652E-04
       0.0000000E+00
       0.0000000E+00
       1.6782628E-04
       0.0000000E+00
       3.7245267E-04
       1.7035945E-04
       0.0000000E+00
       3.2284195E-04
       3.0150729E-04
       2.7796279E-04
       3.8375418E-05
       1.8379260E-04
       2.1076309E-04
       1.2042852E-03
       2.8203633E-04
       9.9887693E-04
       0.0000000E+00
       3.0895521E-04
       2.5680506E-04
       3.7368074E-04
       3.5449669E-04
       3.1062859E-04
       5.2935349E-04
       8.9219709E-04
       6.3873850E-04
       1.1231992E-03
       0.0000000E+00
       0.0000000E+00
       1.2750246E-03
       2.1353450E-04
       2.5734162E-04
       5.7847247E-04
       3.4900209E-04
       4.3749709E-04
       1.0525763E-03
       2.5460748E-04
       2.8764521E-04
       4.4091689E-04
       6.9046694E-04
       2.3970174E-04
       0.0000000E+00
       6.3046815E-04
       2.9341811E-04
       1.1156279E-03
       0.0000000E+00
       9.5036651E-04
       6.0289944E-04
       2.8826900E-04
       7.2164164E-04
       3.4967544E-04
       5.1255065E-04
       2.4558391E-04
       4.0514164E-04
       6.0241643E-04
       1.6941554E-03
       6.6034472E-04
       4.9090233E-04
       1.8571767E-04
       0.0000000E+00
       8.8219161E-05
       0.0000000E+00
       2.4511556E-04
       2.2758647E-04
       3.5476392E-04
       6.0237691E-04
       0.0000000E+00
       0.0000000E+00
       4.3212573E-04
       1.6575345E-04
       4.6734640E-04
       1.8796750E-04
       2.9560699E-04
       6.0129691E-04
       7.8792159E-04
       3.3526318E-04
       3.1753236E-04
       2.6099161E-04
       4.1821790E-04
       3.0114871E-04
       5.2778104E-05
       3.2660419E-04
       7.3192280E-05
       0.0000000E+00
       0.0000000E+00
       1.8896452E-04
       4.4152451E-04
       6.7823438E-04
       1.8564146E-03
       3.7281234E-04
       4.1864628E-04
       2.7677288E-04
       1.0988139E-04
       1.7188023E-04
       4.1822194E-04
       7.3534055E-04
       1.4986063E-03
       3.2499948E-04
       5.9519342E-04
       1.9054884E-04
       2.4014352E-04
       4.1728894E-04
       3.1608269E-04
       5.7867710E-04
       9.3319946E-05
       1.7864613E-04
       2.9067991E-04
       0.0000000E+00
       5.0486715E-05
       2.3986915E-04
       3.1459448E-04
       1.7195994E-03
       3.7646293E-04
       2.6456852E-04
       1.4767423E-04
       6.3842629E-04
       3.2359515E-04
       3.1864804E-04
       1.1376494E-03
       7.5758339E-07
       2.7638174E-04
       7.8346623E-04
       2.9015711E-04
       4.8155312E-04
       6.1092556E-05
       4.9532585E-04
       2.9031969E-04
       3.1406286E-04
       2.1176548E-04
       1.2942400E-03
       0.0000000E+00
       1.0681701E-03
       3.6000811E-04
       2.6722134E-04
       3.0357902E-04
       3.4006426E-04
       6.6316525E-04
       2.3838488E-04
       4.5532017E-04
       7.7726512E-04
       4.1896924E-04
       3.8443713E-04
       1.8155129E-03
       3.5782230E-04
       5.9439565E-04
       1.0484651E-03
       2.1479374E-04
       7.6247183E-05
       0.0000000E+00
       0.0000000E+00
       2.4907243E-04
       4.3299020E-04
       7.4670578E-04
       4.9249373E-04
       1.3170641E-04
       0.0000000E+00
       3.8770648E-04
       2.4521228E-04
       0.0000000E+00
       2.9778159E-04
       4.0918732E-04
       0.0000000E+00
       4.0392316E-04
       4.3622748E-05
       2.2938522E-04
       4.3077006E-04
       7.3369296E-04
       5.6334305E-04
       3.6493166E-04
       3.1330733E-04
       4.1696151E-04
       2.0777944E-04
       0.0000000E+00
       1.0943468E-03
       1.0019352E-03
       2.0197054E-04
       3.0618584E-04
       6.2284948E-04
       5.5071383E-04
       3.6481184E-04
       3.7446256E-04
       3.8227507E-04
       5.0324867E-04
       3.8935870E-04
       3.6469708E-04
       4.5056438E-04
       3.9510836E-04
       1.7370035E-04
       4.2296605E-04
       3.6271529E-04
       2.5265696E-04
       3.9393795E-04
       3.7219713E-04
       1.5697269E-04
       4.6670683E-04
       0.0000000E+00
       0.0000000E+00
       3.0280479E-04
       6.5368858E-04
       3.3085452E-04
       9.4417932E-05
       3.7905279E-04
       4.6710423E-04
       1.2948721E-03
       3.9019060E-04
       5.0408834E-04
       1.0086662E-03
       3.9403972E-04
       5.4385958E-04
       6.9691305E-05
       2.4221651E-04
       8.6641155E-06
       4.3550929E-04
       4.5647285E-04
       3.3883377E-04
       2.5604425E-04
       2.1013642E-04
       3.7118659E-04
       5.2753063E-04
       5.9550977E-04
       2.2241289E-04
       6.9005213E-05
       5.9778938E-04
       7.3853481E-04
       5.0603839E-04
       1.8306711E-04
       2.9768188E-04
       1.3443734E-04
       5.4312374E-04
       2.6974450E-04
       9.9743912E-04
       9.1645513E-05
       3.2110690E-04
       1.8818932E-04
       5.3349387E-04
       2.2778617E-04
       2.2625706E-04
       3.4346009E-04
       0.0000000E+00
       1.1093411E-04
       1.0285472E-04
       0.0000000E+00
       1.8714009E-04
       0.0000000E+00
       1.3481212E-04
       1.0036651E-03
       1.9795085E-04
       1.8686282E-04
       0.0000000E+00
       1.3095513E-04
       6.9956635E-05
       2.0278118E-04
       1.5314335E-04
       1.8918880E-04
       7.9033505E-04
       3.4918955E-04
       6.4268493E-04
       1.0796321E-03
       4.0187907E-04
       1.1332403E-03
       6.5332083E-04
       5.7173019E-04
       2.9139977E-04
       3.0417306E-04
       5.1895810E-04
       1.7923499E-04
       5.5597370E-04
       3.9745160E-04
       1.4459625E-03
       8.5328525E-04
       5.9028425E-04
       1.5856661E-04
       4.5638905E-04
       1.6830266E-04
       2.1949827E-04
       2.9416084E-04
       5.8589353E-04
       1.3949070E-04
       4.4021444E-04
       1.2211308E-04
       1.9201308E-04
       3.0999976E-04
       1.5982210E-04
       1.3112992E-03
       3.8457061E-04
       4.9681546E-04
       1.1199645E-03
       3.3538521E-04
       4.5523415E-04
       4.7099156E-04
       1.3852131E-04
       3.8273858E-04
       5.4818988E-04
       3.2521123E-04
       4.8723407E-04
       6.4489466E-04
       1.2523337E-04
       2.9716657E-04
       1.1731692E-04
       7.0460048E-04
       6.4608309E-05
       2.2797910E-04
       1.8643546E-05
       0.0000000E+00
       2.4863391E-04
       5.0598079E-04
       1.0418335E-04
       1.7796555E-04
       6.3937742E-04
       1.1572832E-03
       4.4288599E-04
       2.7716848E-04
       2.5273286E-04
       2.1311060E-04
       2.5385289E-04
       2.2630552E-04
       5.3439958E-04
       3.1540211E-04
       8.8800479E-04
       1.4404902E-03
       2.3742615E-04
       4.8838536E-04
       1.4468194E-04
       1.7792561E-04
       0.0000000E+00
       2.8323871E-05
       5.3791218E-04
       1.2672738E-04
       2.4446369E-04
       8.2383551E-05
       1.0387691E-04
       8.9610787E-05
       2.5776120E-04
       4.4522159E-04
       2.8646913E-04
       2.7106949E-04
       4.5454205E-04
       2.9356406E-04
       3.4331743E-04
       1.7178138E-04
       2.5540156E-04
       2.8735474E-04
       4.6522632E-04
       3.0933291E-04
       1.1463788E-03
       1.9068589E-03
       3.4446988E-04
       6.0440237E-04
       3.8631331E-04
       4.6967276E-04
       2.0699432E-04
       2.9314457E-04
       2.3300944E-04
       4.6759440E-04
       2.9489070E-04
       2.7341428E-04
       6.3643750E-04
       2.3197720E-04
       4.5027483E-04
       7.2113972E-04
       2.8342778E-04
       7.2322135E-04
       4.9541644E-04
       3.4983050E-04
       2.5763840E-04
       1.2197548E-03
       6.3731540E-04
       3.3305111E-04
       3.6548499E-04
       2.9747805E-04
       7.3362372E-04
       1.8514300E-04
       5.2616425E-04
       3.4964585E-04
       6.1813567E-04
       1.5232787E-03
       4.3975268E-04
       4.6077838E-04
       4.0107241E-04
       5.3654065E-04
       3.5894713E-04
       8.3060338E-04
       1.6578613E-04
       5.6176356E-04
       7.9519449E-04
       1.4827369E-04
       4.4363503E-04
       1.0017832E-03
       2.6668187E-04
       3.9332749E-04
       3.4655092E-04
       4.9004867E-04
       5.9540517E-04
       2.9603868E-04
       1.0381188E-03
       3.1263310E-04
       3.0097938E-04
       3.9001377E-04
       3.9200856E-04
       4.5774674E-04
       1.8172530E-04
       2.8074062E-04
       4.9540804E-04
       1.8425254E-04
       4.3615108E-04
       7.1000716E-04
       8.8444884E-04
       2.0092786E-04
       3.4597925E-04
       3.7329823E-04
       4.6156571E-04
       2.7399062E-04
       6.4881370E-04
       5.7297218E-04
       5.8292955E-04
       2.6222688E-04
       3.8163370E-04
       3.5315006E-04
       4.4389807E-04
       2.1002531E-04
       9.9529834E-04
       1.8521570E-04
       2.2625403E-04
       6.7428733E-04
       3.1640676E-04
       6.5035240E-04
       4.4782780E-04
       4.1544477E-04
       6.3903672E-04
       3.9349237E-04
       2.0461586E-04
       2.4518141E-04
       3.1156739E-04
       7.4059096E-04
       4.3600120E-04
       1.5175575E-04
       3.5249279E-04
       4.5143192E-04
       3.6479405E-04
       3.8849942E-04
       2.4230864E-04
       6.1266405E-04
       3.3811226E-04
       2.3945219E-04
       1.7153118E-04
       3.8216459E-04
       3.3266343E-04
       1.1514868E-04
       4.6808224E-04
       1.7833282E-04
       4.8254703E-04
       3.5865627E-04
       5.6627772E-04
       8.4767333E-04
       7.8536061E-04
       3.6438689E-04
       3.2214242E-04
       5.9141006E-04
       5.0935932E-04
       4.4764590E-04
       7.0319084E-04
       3.7023782E-04
       4.3158189E-04
       3.5929307E-04
       3.3110719E-04
       8.6881954E-04
       4.0070357E-04
       3.5628179E-04
       3.5695260E-04
       4.7881240E-04
       2.5217241E-04
       2.2434425E-04
       3.0164244E-04
       2.7549940E-04
       4.3033705E-04
       1.8031239E-04
       4.9601483E-04
       4.6965820E-04
       2.2181606E-04
       6.1587551E-04
       4.7893534E-04
       4.6928655E-04
       1.8202745E-04
       1.3347736E-03
       3.2728360E-04
       2.7688569E-04
       3.6591162E-04
       2.5254114E-04
       3.2261426E-04
       3.9848726E-04
       2.7340840E-04
       4.2330365E-04
       5.9368114E-04
       4.0163313E-04
       2.3474596E-04
       3.0843832E-04
       2.0531459E-04
       5.0067420E-04
       1.2121498E-03
       4.5075678E-04
       1.9754297E-04
       2.3618346E-04
       7.8607700E-04
       3.4238483E-04
       8.0227751E-04
       3.4933568E-04
       2.3860062E-04
       1.0417200E-03
       2.2413283E-04
       1.6888732E-04
       1.5911528E-04
       3.0494939E-04
       2.5568772E-04
       0.0000000E+00
       5.0858035E-04
       4.5288544E-04
       8.1455726E-04
       3.1668293E-04
       5.9915903E-04
       8.2414562E-04
       7.3957374E-04
       6.2497526E-04
       3.0141553E-04
       3.5950160E-04
       3.5425175E-04
       3.5876660E-04
       5.6900081E-04
       2.5420936E-04
       5.9722907E-04
       6.8481181E-04
       5.6352806E-04
       1.3207713E-03
       4.9184717E-04
       3.6803483E-04
       6.6296974E-04
       4.1980371E-04
       3.4275937E-04
       4.2016330E-04
       2.3830356E-04
       9.4343031E-05
       4.7085007E-04
       7.8466815E-04
       1.1350833E-03
       4.9376737E-04
       3.6830548E-04
       8.0608214E-04
       2.7844780E-04
       2.7354951E-04
       3.0539848E-04
       2.9606664E-04
       2.6977559E-04
       4.7065060E-04
       5.4630831E-04
       2.6621448E-04
       1.0569908E-03
       1.8669087E-04
       1.4686042E-04
       2.4929653E-04
       0.0000000E+00
       8.1771828E-05
       5.7085813E-04
       0.0000000E+00
       0.0000000E+00
       5.9629530E-04
       2.8617069E-04
       2.4619462E-04
       2.3255165E-04
       1.5742457E-04
       1.7065776E-04
       2.3766751E-04
       4.0590654E-04
       1.7862320E-04
       6.3775975E-04
       5.6151876E-04
       1.6743185E-04
       1.1460243E-03
       4.6908987E-04
       2.2442538E-04
       4.0111507E-04
       2.8920212E-04
       3.7942203E-04
       2.8075666E-04
       2.7182701E-04
       7.7147613E-04
       9.7551911E-04
       7.2870870E-04
       1.5526658E-03
       2.3532647E-04
       1.4330500E-03
       3.1427558E-04
       4.5823967E-04
       9.4026918E-04
       3.2894006E-04
       3.5710057E-04
       8.1286577E-04
       4.1077047E-04
       3.2169932E-04
       7.2860666E-04
       5.0940908E-04
       2.5619152E-04
       1.7428750E-04
       2.0331267E-04
       2.7595586E-04
       4.5520717E-04
       4.4920287E-04
       1.4116365E-03
       1.3536579E-03
       6.1731265E-04
       3.8930806E-04
       7.5744330E-05
       3.0177690E-04
       2.1904215E-04
       1.4454775E-04
       1.8756884E-04
       1.2309453E-04
       1.1726693E-04
       2.0013764E-04
       0.0000000E+00
       3.8074344E-04
       3.1413260E-04
       1.9814894E-04
       2.8827220E-04
       4.1490009E-04
       3.6706280E-04
       3.9277336E-04
       2.4538684E-04
       3.1839291E-04
       2.0052675E-04
       1.1173319E-03
       3.7625144E-04
       1.0955821E-03
       1.8776214E-04
       2.3378907E-04
       7.9309256E-04
       2.8490342E-04
       4.0137009E-04
       2.8110636E-04
       1.3710172E-04
       2.3228856E-04
       8.9143155E-04
       1.5809590E-04
       2.7553932E-04
       2.2852819E-04
       3.0515442E-04
       4.1509981E-04
       2.3644923E-04
       9.7767706E-04
       2.6851555E-04
       2.0650774E-04
       2.9556814E-04
       2.3592428E-04
       5.9705260E-04
       5.1607784E-04
       4.0547026E-04
       3.9764448E-04
       1.5225968E-03
       5.5218503E-04
       6.1130336E-04
       3.5454481E-04
       5.6290594E-04
       3.6136162E-04
       5.3015945E-05
       6.1738607E-04
       6.4422851E-04
       1.9085667E-04
       3.1803755E-04
       4.7644803E-04
       5.0359082E-04
       3.2922436E-04
       4.0822836E-04
       2.8882844E-04
       6.0475650E-04
       1.9888568E-04
       3.2280964E-04
       3.4386264E-04
       5.1571036E-04
       9.5984026E-04
       1.1696430E-03
       3.3048916E-04
       2.9824321E-04
       2.0552802E-04
       1.2319896E-04
       8.8333541E-05
       5.2841194E-04
       1.9010041E-04
       4.5399280E-04
       1.3289221E-03
       1.6139893E-04
       4.0070192E-04
       1.7481940E-03
       2.8195368E-04
       4.9623305E-04
       5.7877454E-04
       2.2290487E-04
       8.2247262E-04
       3.0323765E-04
       3.4070659E-04
       3.6877676E-04
       1.4052614E-04
       2.9770713E-04
       2.2542011E-04
       4.2732507E-04
       1.9484280E-04
       3.4746361E-04
       8.2046282E-04
       1.9497694E-04
       5.0670506E-04
       9.9474411E-05
       1.2471440E-03
       5.0557834E-04
       4.8372795E-04
       6.3228455E-04
       1.8284740E-04
       3.4820389E-04
       2.0628143E-04
       4.8189964E-04
       3.1142957E-04
       2.7898462E-04
       1.9936886E-04
       4.2520276E-04
       2.1053484E-04
       1.0193846E-04
       1.5304849E-04
       4.3186491E-04
       3.9466301E-04
       5.1404816E-04
       3.1999080E-04
       2.8055208E-04
       2.8510325E-04
       3.7191034E-04
       3.3860959E-04
       7.0006631E-04
       4.3775141E-04
       2.2847115E-04
       1.5329722E-04
       1.8570185E-04
       1.9508648E-04
       2.7032345E-04
       1.8093724E-04
       2.3234655E-04
       4.4377876E-05
       6.9757409E-05
       7.7926149E-05
       1.0363097E-04
       1.8706695E-04
       0.0000000E+00
       0.0000000E+00
       0.0000000E+00
       0.0000000E+00
       3.6636201E-04
       0.0000000E+00
       0.0000000E+00
       2.0338273E-04
       3.6134770E-04
       1.3905284E-04
       0.0000000E+00
       0.0000000E+00
       4.1493814E-04
       8.1380353E-05
       1.7327891E-04
       0.0000000E+00
       2.2065057E-04
       1.9124318E-04
       3.7957872E-04
       2.4574599E-04
       1.7335332E-04
       4.6653305E-04
       1.1955542E-03
       7.9280056E-04
       1.1143174E-04
       5.4602266E-04
       1.6011667E-04
       2.5762842E-04
       0.0000000E+00
       0.0000000E+00
       1.5567865E-04
       0.0000000E+00
       0.0000000E+00
       0.0000000E+00
       1.0379125E-05
       0.0000000E+00
       2.2949712E-04
       4.3629967E-04
       0.0000000E+00
       4.6548391E-04
       5.3266566E-04
       9.5924514E-05
       3.8397693E-04
       2.0553881E-04
       7.4166152E-04
       2.3798999E-04
       2.5380159E-04
       0.0000000E+00
       9.7409030E-04
       3.7294573E-04
       1.1832511E-04
       1.2841124E-04
       5.2846249E-04
       3.2515066E-04
       2.6241466E-04
       4.3299997E-04
       2.6095887E-04
       1.5985300E-04
       5.0542288E-04
       0.0000000E+00
       1.0163415E-05
       4.2722051E-05
       0.0000000E+00
       0.0000000E+00
       5.6646621E-04
       6.2953945E-04
       9.0129379E-04
       2.1045942E-04
       5.1138764E-04
       5.5543908E-04
       6.4189425E-04
       3.7285089E-04
       0.0000000E+00
       1.7045250E-04
       0.0000000E+00
       5.6665634E-05
       5.8180352E-04
       5.3957382E-04
       1.2777073E-04
       5.4894329E-04
       1.0127491E-04
       3.9220266E-04
       5.3268341E-04
       2.4174349E-04
       3.7636301E-04
       8.5522873E-04
       8.3670196E-04
       3.8807101E-04
       1.9751618E-04
       3.5694616E-04
       6.5506330E-04
       3.9964551E-04
       8.0907060E-05
       0.0000000E+00
       1.7697350E-04
       4.5259449E-04
       1.3273708E-04
       1.9875062E-04
       1.5593615E-04
       1.3704406E-04
       1.3888425E-04
       1.3864799E-04
       1.0129649E-03
       2.9653204E-04
       1.8441175E-04
       6.3967973E-04
       2.5586321E-04
       2.2257295E-04
       3.0786926E-04
       3.2571810E-04
       1.3687711E-04
       3.3992811E-04
       5.3225781E-04
       1.5237750E-04
       6.8915802E-04
       1.2265277E-04
       5.1052484E-04
       4.4687411E-05
       8.4709341E-07
       3.0828378E-04
       0.0000000E+00
       2.3439530E-04
       2.4492273E-04
       5.5627472E-05
       1.5993473E-04
       4.0114314E-04
       2.5156004E-04
       0.0000000E+00
       8.9044392E-05
       0.0000000E+00
       0.0000000E+00
       4.4861004E-04
       3.9771456E-04
       2.9122646E-04
       3.5710109E-04
       4.3166509E-04
       2.0966787E-04
       0.0000000E+00
       0.0000000E+00
       1.2174497E-03
       2.6802482E-04
       2.1618467E-04
       1.8078494E-04
       4.5086146E-05
       4.4366168E-04
       2.1359853E-04
       1.3040272E-04
       1.6697397E-04
       8.6551939E-05
       5.0305280E-04
       2.1335598E-04
       5.0638194E-04