# vtk DataFile Version 3.0
# Solution du M1 TR
ASCII
DATASET UNSTRUCTURED_GRID
POINTS     79  float
0.0000000E+00  0.0000000E+00  0.0000000E+00
0.0000000E+00  0.1000000E+01  0.0000000E+00
0.1000000E+01  0.1000000E+01  0.0000000E+00
0.1000000E+01  0.0000000E+00  0.0000000E+00
0.5000000E+00  0.5000000E+00  0.0000000E+00
0.0000000E+00  0.5000000E+00  0.0000000E+00
0.5000000E+00  0.0000000E+00  0.0000000E+00
0.2500000E+00  0.5000000E+00  0.0000000E+00
0.2500000E+00  0.9687500E+00  0.0000000E+00
0.5000000E+00  0.1000000E+01  0.0000000E+00
0.0000000E+00  0.2500000E+00  0.0000000E+00
0.3750000E+00  0.2500000E+00  0.0000000E+00
0.2500000E+00  0.3125000E-01  0.0000000E+00
0.1250000E+00  0.7500000E+00  0.0000000E+00
0.3911638E+00  0.7429957E+00  0.0000000E+00
0.1000000E+01  0.5000000E+00  0.0000000E+00
0.7500000E+00  0.0000000E+00  0.0000000E+00
0.6562500E+00  0.2656250E+00  0.0000000E+00
0.7500000E+00  0.4973958E+00  0.0000000E+00
0.8723823E+00  0.7500000E+00  0.0000000E+00
0.7500000E+00  0.9700452E+00  0.0000000E+00
0.6322989E+00  0.7103680E+00  0.0000000E+00
0.9186790E+00  0.2500000E+00  0.0000000E+00
0.1250000E+00  0.3750000E+00  0.0000000E+00
0.1250000E+00  0.5000000E+00  0.0000000E+00
0.0000000E+00  0.3750000E+00  0.0000000E+00
0.1875000E+00  0.6250000E+00  0.0000000E+00
0.6250000E-01  0.6250000E+00  0.0000000E+00
0.2500000E+00  0.1000000E+01  0.0000000E+00
0.1250000E+00  0.9843750E+00  0.0000000E+00
0.3750000E+00  0.9843750E+00  0.0000000E+00
0.5781250E+00  0.1328125E+00  0.0000000E+00
0.6250000E+00  0.0000000E+00  0.0000000E+00
0.7031250E+00  0.1328125E+00  0.0000000E+00
0.0000000E+00  0.7500000E+00  0.0000000E+00
0.6250000E-01  0.8750000E+00  0.0000000E+00
0.5156250E+00  0.2578125E+00  0.0000000E+00
0.4375000E+00  0.1250000E+00  0.0000000E+00
0.1875000E+00  0.2500000E+00  0.0000000E+00
0.3125000E+00  0.3750000E+00  0.0000000E+00
0.3205819E+00  0.6214978E+00  0.0000000E+00
0.3750000E+00  0.5000000E+00  0.0000000E+00
0.4455819E+00  0.6214978E+00  0.0000000E+00
0.1250000E+00  0.1406250E+00  0.0000000E+00
0.0000000E+00  0.1250000E+00  0.0000000E+00
0.1250000E+00  0.1562500E-01  0.0000000E+00
0.1875000E+00  0.8593750E+00  0.0000000E+00
0.2580819E+00  0.7464978E+00  0.0000000E+00
0.5661495E+00  0.6051840E+00  0.0000000E+00
0.5117314E+00  0.7266819E+00  0.0000000E+00
0.3205819E+00  0.8558728E+00  0.0000000E+00
0.3125000E+00  0.1406250E+00  0.0000000E+00
0.4375000E+00  0.3750000E+00  0.0000000E+00
0.2500000E+00  0.0000000E+00  0.0000000E+00
0.3750000E+00  0.1562500E-01  0.0000000E+00
0.5781250E+00  0.3828125E+00  0.0000000E+00
0.6250000E+00  0.4986979E+00  0.0000000E+00
0.6911495E+00  0.6038819E+00  0.0000000E+00
0.4455819E+00  0.8714978E+00  0.0000000E+00
0.8750000E+00  0.4986979E+00  0.0000000E+00
0.9361911E+00  0.6250000E+00  0.0000000E+00
0.8111911E+00  0.6236979E+00  0.0000000E+00
0.8343395E+00  0.1250000E+00  0.0000000E+00
0.8750000E+00  0.0000000E+00  0.0000000E+00
0.9593395E+00  0.1250000E+00  0.0000000E+00
0.7874645E+00  0.2578125E+00  0.0000000E+00
0.7031250E+00  0.3815104E+00  0.0000000E+00
0.8343395E+00  0.3736979E+00  0.0000000E+00
0.1000000E+01  0.7500000E+00  0.0000000E+00
0.9361911E+00  0.8750000E+00  0.0000000E+00
0.8750000E+00  0.9850226E+00  0.0000000E+00
0.8111911E+00  0.8600226E+00  0.0000000E+00
0.5661495E+00  0.8551840E+00  0.0000000E+00
0.6911495E+00  0.8402066E+00  0.0000000E+00
0.6250000E+00  0.9850226E+00  0.0000000E+00
0.7500000E+00  0.1000000E+01  0.0000000E+00
0.7523406E+00  0.7301840E+00  0.0000000E+00
0.1000000E+01  0.2500000E+00  0.0000000E+00
0.9593395E+00  0.3750000E+00  0.0000000E+00
CELLS      34    136
3      10       7       5
3       5       7      13
3       9       1       8
3      17       6      16
3       1       5      13
3       6      17      11
3       7      10      11
3      14       7       4
3      12      10       0
3       1      13       8
3      14      13       7
3       4      21      14
3      14       8      13
3      11      10      12
3       4       7      11
3       0       6      12
3       6      11      12
3      17       4      11
3      21       4      18
3       9       8      14
3      18      15      19
3      22      16       3
3      16      22      17
3      18      17      22
3      19      15       2
3       4      17      18
3       2      20      19
3       9      21      20
3       2       9      20
3      21       9      14
3      18      19      21
3      20      21      19
3       3      15      22
3      18      22      15
CELL_TYPES      34
5
5
5
5
5
5
5
5
5
5
5
5
5
5
5
5
5
5
5
5
5
5
5
5
5
5
5
5
5
5
5
5
5
5
POINT_DATA      79
SCALARS hauteur float
LOOKUP_TABLE DEFAULT
       0.0000000E+00
      -0.0000000E+00
       0.0000000E+00
      -0.0000000E+00
       6.2500000E-02
       0.0000000E+00
       0.0000000E+00
       4.6875000E-02
       5.6762695E-03
      -0.0000000E+00
       0.0000000E+00
       4.3945312E-02
       5.6762695E-03
       2.0507812E-02
       4.5476373E-02
      -0.0000000E+00
       0.0000000E+00
       4.4004679E-02
       4.6873728E-02
       2.0874646E-02
       5.4482902E-03
       4.7835161E-02
       1.4007734E-02
       2.5634766E-02
       2.7343750E-02
       0.0000000E+00
       3.5705566E-02
       1.3732910E-02
      -0.0000000E+00
       1.6822815E-03
       3.6048889E-03
       2.8090373E-02
       0.0000000E+00
       2.4041310E-02
       0.0000000E+00
       6.4086914E-03
       4.7789589E-02
       2.6916504E-02
       2.8564453E-02
       5.0354004E-02
       5.1237047E-02
       5.8593750E-02
       5.8112950E-02
       1.3217926E-02
       0.0000000E+00
       1.6822815E-03
       1.8410683E-02
       3.6234621E-02
       5.8688555E-02
       4.9626498E-02
       2.6867742E-02
       2.5963783E-02
       5.7678223E-02
       0.0000000E+00
       3.6048889E-03
       5.7624713E-02
       5.8593353E-02
       5.1061906E-02
       2.7665700E-02
       2.7343565E-02
       1.4000928E-02
       3.5946490E-02
       1.5117496E-02
       0.0000000E+00
       4.2664162E-03
       3.2024333E-02
       4.9254391E-02
       3.2349407E-02
      -0.0000000E+00
       6.5337665E-03
       1.6136200E-03
       1.8437983E-02
       3.0419166E-02
       2.8659279E-02
       3.4577571E-03
      -0.0000000E+00
       3.6708726E-02
      -0.0000000E+00
       9.1423205E-03
