# vtk DataFile Version 3.0
# Solution du M1 TR
ASCII
DATASET UNSTRUCTURED_GRID
POINTS   1118  float
0.0000000E+00  0.0000000E+00  0.0000000E+00
0.0000000E+00  0.1000000E+01  0.0000000E+00
0.1000000E+01  0.1000000E+01  0.0000000E+00
0.1000000E+01  0.0000000E+00  0.0000000E+00
0.5000000E+00  0.5000000E+00  0.0000000E+00
0.0000000E+00  0.5000000E+00  0.0000000E+00
0.5000000E+00  0.0000000E+00  0.0000000E+00
0.2500000E+00  0.5000000E+00  0.0000000E+00
0.2500000E+00  0.9687500E+00  0.0000000E+00
0.5000000E+00  0.1000000E+01  0.0000000E+00
0.0000000E+00  0.2500000E+00  0.0000000E+00
0.3750000E+00  0.2500000E+00  0.0000000E+00
0.2500000E+00  0.3125000E-01  0.0000000E+00
0.1250000E+00  0.7500000E+00  0.0000000E+00
0.3911638E+00  0.7429957E+00  0.0000000E+00
0.1000000E+01  0.5000000E+00  0.0000000E+00
0.7500000E+00  0.0000000E+00  0.0000000E+00
0.6562500E+00  0.2656250E+00  0.0000000E+00
0.7500000E+00  0.4973958E+00  0.0000000E+00
0.8723823E+00  0.7500000E+00  0.0000000E+00
0.7500000E+00  0.9700452E+00  0.0000000E+00
0.6322989E+00  0.7103680E+00  0.0000000E+00
0.9186790E+00  0.2500000E+00  0.0000000E+00
0.6241122E+00  0.4134706E+00  0.0000000E+00
0.8850551E+00  0.9011034E+00  0.0000000E+00
0.8750000E+00  0.9756571E-01  0.0000000E+00
0.1000000E+01  0.7500000E+00  0.0000000E+00
0.7926728E+00  0.3452888E+00  0.0000000E+00
0.3854167E+00  0.9895833E-01  0.0000000E+00
0.2599627E+00  0.8179678E+00  0.0000000E+00
0.3750000E+00  0.4062500E+00  0.0000000E+00
0.1145833E+00  0.9010417E+00  0.0000000E+00
0.0000000E+00  0.7500000E+00  0.0000000E+00
0.1250000E+00  0.5937500E+00  0.0000000E+00
0.6250000E+00  0.1052390E+00  0.0000000E+00
0.7376584E+00  0.8191260E+00  0.0000000E+00
0.1760417E+00  0.1989583E+00  0.0000000E+00
0.1250000E+00  0.3750000E+00  0.0000000E+00
0.7663311E+00  0.6454318E+00  0.0000000E+00
0.5266793E+00  0.8371547E+00  0.0000000E+00
0.5008484E+00  0.6462514E+00  0.0000000E+00
0.6257190E+00  0.5677212E+00  0.0000000E+00
0.2566406E+00  0.6672397E+00  0.0000000E+00
0.9969894E+00  0.1250000E+00  0.0000000E+00
0.1000000E+01  0.2500000E+00  0.0000000E+00
0.0000000E+00  0.3750000E+00  0.0000000E+00
0.1020690E+00  0.2729310E+00  0.0000000E+00
0.7237960E-01  0.1705329E+00  0.0000000E+00
0.1178133E+00  0.7311825E-01  0.0000000E+00
0.4762698E+00  0.4014320E+00  0.0000000E+00
0.5303440E+00  0.3156721E+00  0.0000000E+00
0.8046824E+00  0.2302127E+00  0.0000000E+00
0.9230908E+00  0.3867911E+00  0.0000000E+00
0.8750000E+00  0.0000000E+00  0.0000000E+00
0.0000000E+00  0.8750000E+00  0.0000000E+00
0.2783119E+00  0.1438971E+00  0.0000000E+00
0.6250000E+00  0.0000000E+00  0.0000000E+00
0.6191150E+00  0.9359067E+00  0.0000000E+00
0.6312034E+00  0.8168420E+00  0.0000000E+00
0.1000000E+01  0.8750000E+00  0.0000000E+00
0.2578125E+00  0.3281250E+00  0.0000000E+00
0.3882478E+00  0.8980833E+00  0.0000000E+00
0.5030887E+00  0.1829537E+00  0.0000000E+00
0.3906250E-02  0.6250000E+00  0.0000000E+00
0.7508108E+00  0.1278183E+00  0.0000000E+00
0.1406250E+00  0.4843750E+00  0.0000000E+00
0.8748313E+00  0.5148913E+00  0.0000000E+00
0.9361911E+00  0.6250000E+00  0.0000000E+00
0.3750000E+00  0.5738533E+00  0.0000000E+00
0.3750000E+00  0.1000000E+01  0.0000000E+00
0.3001743E+00  0.8963449E+00  0.0000000E+00
0.3480054E+00  0.8197554E+00  0.0000000E+00
0.1698254E+00  0.8289714E+00  0.0000000E+00
0.4371347E+00  0.8214313E+00  0.0000000E+00
0.8282243E+00  0.8297866E+00  0.0000000E+00
0.4772928E+00  0.9126717E+00  0.0000000E+00
0.1634524E+00  0.6718750E+00  0.0000000E+00
0.2128157E+00  0.7436063E+00  0.0000000E+00
0.4961093E+00  0.1010641E+00  0.0000000E+00
0.6250000E+00  0.1000000E+01  0.0000000E+00
0.1250000E+00  0.0000000E+00  0.0000000E+00
0.5722362E+00  0.2379112E+00  0.0000000E+00
0.3424479E+00  0.3281250E+00  0.0000000E+00
0.9424053E+00  0.5493859E+00  0.0000000E+00
0.6101384E+00  0.3330173E+00  0.0000000E+00
0.9321698E+00  0.4633520E+00  0.0000000E+00
0.3358283E+00  0.6839399E+00  0.0000000E+00
0.4116682E+00  0.6556927E+00  0.0000000E+00
0.6250000E-01  0.6893921E+00  0.0000000E+00
0.8765666E+00  0.6733497E+00  0.0000000E+00
0.8473113E+00  0.6023785E+00  0.0000000E+00
0.7637566E+00  0.4241543E+00  0.0000000E+00
0.8381824E+00  0.4279440E+00  0.0000000E+00
0.1000000E+01  0.3750000E+00  0.0000000E+00
0.4903282E+00  0.7448741E+00  0.0000000E+00
0.5699048E+00  0.7629687E+00  0.0000000E+00
0.6638849E+00  0.4901900E+00  0.0000000E+00
0.1000000E+01  0.6250000E+00  0.0000000E+00
0.7331323E+00  0.7291651E+00  0.0000000E+00
0.8071726E+00  0.7100728E+00  0.0000000E+00
0.2866293E+00  0.5835493E+00  0.0000000E+00
0.6867445E+00  0.6519537E+00  0.0000000E+00
0.7126852E+00  0.5764312E+00  0.0000000E+00
0.4098050E+00  0.4900516E+00  0.0000000E+00
0.3306035E+00  0.5062857E+00  0.0000000E+00
0.4590292E+00  0.5733658E+00  0.0000000E+00
0.5827105E+00  0.6452264E+00  0.0000000E+00
0.5424884E+00  0.5739198E+00  0.0000000E+00
0.2055377E+00  0.3916016E+00  0.0000000E+00
0.2842371E+00  0.4154412E+00  0.0000000E+00
0.1775174E+00  0.9444444E+00  0.0000000E+00
0.2500000E+00  0.1000000E+01  0.0000000E+00
0.6250000E-01  0.9565515E+00  0.0000000E+00
0.1250000E+00  0.1000000E+01  0.0000000E+00
0.5625000E+00  0.5261949E-01  0.0000000E+00
0.3224826E+00  0.5555556E-01  0.0000000E+00
0.3533462E+00  0.1726266E+00  0.0000000E+00
0.4375000E+00  0.4344846E-01  0.0000000E+00
0.3750000E+00  0.0000000E+00  0.0000000E+00
0.2500000E+00  0.0000000E+00  0.0000000E+00
0.6830520E+00  0.8822521E+00  0.0000000E+00
0.9274068E+00  0.8214683E+00  0.0000000E+00
0.5877997E+00  0.8725813E+00  0.0000000E+00
0.8719553E+00  0.1809132E+00  0.0000000E+00
0.7459677E-01  0.5307460E+00  0.0000000E+00
0.7069791E+00  0.3758855E+00  0.0000000E+00
0.6429465E+00  0.1849796E+00  0.0000000E+00
0.7340614E+00  0.2890171E+00  0.0000000E+00
0.7211336E+00  0.2088007E+00  0.0000000E+00
0.8524368E+00  0.2933612E+00  0.0000000E+00
0.7224151E-01  0.8222415E+00  0.0000000E+00
0.6875000E+00  0.5261949E-01  0.0000000E+00
0.2599106E-01  0.8959510E-01  0.0000000E+00
0.9375000E+00  0.9563951E+00  0.0000000E+00
0.8221702E+00  0.9446692E+00  0.0000000E+00
0.7500000E+00  0.1000000E+01  0.0000000E+00
0.8750000E+00  0.1000000E+01  0.0000000E+00
0.6445312E-01  0.4394531E+00  0.0000000E+00
0.2002065E+00  0.1036461E+00  0.0000000E+00
0.1875000E+00  0.5468750E+00  0.0000000E+00
0.4519794E+00  0.2411886E+00  0.0000000E+00
0.4380560E+00  0.3174094E+00  0.0000000E+00
0.5478384E+00  0.4363424E+00  0.0000000E+00
0.8125000E+00  0.4878285E-01  0.0000000E+00
0.9375000E+00  0.4878285E-01  0.0000000E+00
0.3956900E-01  0.3125000E+00  0.0000000E+00
0.1861416E+00  0.2830309E+00  0.0000000E+00
0.2658988E+00  0.2357703E+00  0.0000000E+00
0.8133374E+00  0.4871066E+00  0.0000000E+00
0.4499011E+00  0.1571374E+00  0.0000000E+00
0.6848779E+00  0.7668523E+00  0.0000000E+00
0.4375000E+00  0.9696350E+00  0.0000000E+00
0.5188453E+00  0.6980436E+00  0.0000000E+00
0.4270582E+00  0.4337574E+00  0.0000000E+00
0.4403114E+00  0.7668799E+00  0.0000000E+00
0.4605837E+00  0.6918287E+00  0.0000000E+00
0.1108396E-01  0.1875000E+00  0.0000000E+00
0.1225513E+00  0.8035974E+00  0.0000000E+00
0.9741512E-02  0.8125000E+00  0.0000000E+00
0.0000000E+00  0.1250000E+00  0.0000000E+00
0.1953125E-02  0.4375000E+00  0.0000000E+00
0.8796192E+00  0.8471332E+00  0.0000000E+00
0.5806149E-01  0.2301874E+00  0.0000000E+00
0.4847709E+00  0.3468645E+00  0.0000000E+00
0.3035034E+00  0.6368139E+00  0.0000000E+00
0.9900545E+00  0.8125000E+00  0.0000000E+00
0.7770886E-01  0.1137161E+00  0.0000000E+00
0.7185584E+00  0.9227791E+00  0.0000000E+00
0.7804510E+00  0.8456131E+00  0.0000000E+00
0.5816902E+00  0.1768445E+00  0.0000000E+00
0.6774326E+00  0.1040894E+00  0.0000000E+00
0.2864003E-04  0.6875000E+00  0.0000000E+00
0.1687286E+00  0.8853375E+00  0.0000000E+00
0.5956060E+00  0.4570232E+00  0.0000000E+00
0.5151529E+00  0.2387540E+00  0.0000000E+00
0.3355001E+00  0.7622114E+00  0.0000000E+00
0.5625000E+00  0.9931222E+00  0.0000000E+00
0.3930592E+00  0.7945743E+00  0.0000000E+00
0.3920808E+00  0.8466124E+00  0.0000000E+00
0.8290497E+00  0.8874309E+00  0.0000000E+00
0.1671168E+00  0.7222040E+00  0.0000000E+00
0.6214412E+00  0.2299472E+00  0.0000000E+00
0.1000000E+01  0.5625000E+00  0.0000000E+00
0.3831482E+00  0.6950537E+00  0.0000000E+00
0.5769518E+00  0.8167607E+00  0.0000000E+00
0.6250000E-01  0.7519216E+00  0.0000000E+00
0.8903856E+00  0.5678560E+00  0.0000000E+00
0.8228164E+00  0.6539910E+00  0.0000000E+00
0.6341505E+00  0.6575134E+00  0.0000000E+00
0.7290288E+00  0.6790901E+00  0.0000000E+00
0.3589799E+00  0.6301654E+00  0.0000000E+00
0.2930259E+00  0.4682102E+00  0.0000000E+00
0.5860065E+00  0.5963699E+00  0.0000000E+00
0.5009248E+00  0.5486393E+00  0.0000000E+00
0.5005975E+00  0.5979554E+00  0.0000000E+00
0.3624978E+00  0.4605710E+00  0.0000000E+00
0.2528339E+00  0.3772882E+00  0.0000000E+00
0.3688523E+00  0.9473815E+00  0.0000000E+00
0.3180193E+00  0.9622980E+00  0.0000000E+00
0.5514588E-01  0.8974623E+00  0.0000000E+00
0.1875000E+00  0.1000000E+01  0.0000000E+00
0.5625000E+00  0.0000000E+00  0.0000000E+00
0.3286955E+00  0.1138755E+00  0.0000000E+00
0.5104550E+00  0.5100945E-01  0.0000000E+00
0.6529980E+00  0.3670133E+00  0.0000000E+00
0.7421926E+00  0.3392079E+00  0.0000000E+00
0.9445935E+00  0.8971487E+00  0.0000000E+00
0.8125000E+00  0.1000000E+01  0.0000000E+00
0.7634497E+00  0.8929811E+00  0.0000000E+00
0.2208019E+00  0.1595872E+00  0.0000000E+00
0.3125000E+00  0.0000000E+00  0.0000000E+00
0.2063194E+00  0.6153086E+00  0.0000000E+00
0.2413644E+00  0.5535900E+00  0.0000000E+00
0.9375000E+00  0.0000000E+00  0.0000000E+00
0.4081568E+00  0.1990040E+00  0.0000000E+00
0.9984947E+00  0.6250000E-01  0.0000000E+00
0.1480720E+00  0.2449614E+00  0.0000000E+00
0.5596593E+00  0.3730253E+00  0.0000000E+00
0.3936018E+00  0.3526551E+00  0.0000000E+00
0.4976452E+00  0.4484264E+00  0.0000000E+00
0.7565694E+00  0.2442398E+00  0.0000000E+00
0.9593395E+00  0.3125000E+00  0.0000000E+00
0.9023280E+00  0.3228164E+00  0.0000000E+00
0.8592925E+00  0.3616068E+00  0.0000000E+00
0.8125000E+00  0.0000000E+00  0.0000000E+00
[...]
POINT_DATA    1118
SCALARS hauteur float
LOOKUP_TABLE DEFAULT
       0.0000000E+00
      -0.0000000E+00
       0.0000000E+00
      -0.0000000E+00
       6.2500000E-02
       0.0000000E+00
       0.0000000E+00
       4.6875000E-02
       5.6762695E-03
      -0.0000000E+00
       0.0000000E+00
       4.3945312E-02
       5.6762695E-03
       2.0507812E-02
       4.5476373E-02
      -0.0000000E+00
       0.0000000E+00
       4.4004679E-02
       4.6873728E-02
       2.0874646E-02
       5.4482902E-03
       4.7835161E-02
       1.4007734E-02
       5.6892541E-02
       9.0660002E-03
       9.6301012E-03
      -0.0000000E+00
       3.7152024E-02
       2.1120710E-02
       2.8645021E-02
       5.6533813E-02
       9.0462043E-03
       0.0000000E+00
       2.6382446E-02
       2.2069624E-02
       2.8671428E-02
       2.3117345E-02
       2.5634766E-02
       4.0979576E-02
       3.3984639E-02
       5.7152470E-02
       5.7474630E-02
       4.2358205E-02
       3.2828889E-04
      -0.0000000E+00
       0.0000000E+00
       1.8187178E-02
       9.4971595E-03
       7.0437691E-03
       5.9935776E-02
       5.3806901E-02
       2.7852605E-02
       1.6838674E-02
       0.0000000E+00
       0.0000000E+00
       2.4743396E-02
       0.0000000E+00
       1.4145232E-02
       3.4827337E-02
      -0.0000000E+00
       4.2183772E-02
       2.1739347E-02
       3.7368981E-02
       9.1195107E-04
       2.0857383E-02
       3.0182898E-02
       2.7351089E-02
       1.4000928E-02
       5.7315397E-02
      -0.0000000E+00
       1.9517723E-02
       3.3525591E-02
       1.9988507E-02
       3.6090790E-02
       2.0094156E-02
       1.9884414E-02
       3.0144620E-02
       3.1939675E-02
       2.2711167E-02
      -0.0000000E+00
       0.0000000E+00
       4.4381286E-02
       4.9642368E-02
       1.3437010E-02
       5.2834815E-02
       1.5722385E-02
       4.8215343E-02
       5.4678456E-02
       1.2546717E-02
       2.3798053E-02
       3.0987698E-02
       4.4070168E-02
       3.3203957E-02
      -0.0000000E+00
       4.7491394E-02
       4.4328128E-02
       5.5763957E-02
      -0.0000000E+00
       3.8637486E-02
       3.2042547E-02
       4.9690911E-02
       4.8814370E-02
       4.9995075E-02
       6.0442279E-02
       5.5317460E-02
       6.0743748E-02
       5.5661349E-02
       6.0692513E-02
       3.8904270E-02
       4.9406915E-02
       7.6607534E-03
      -0.0000000E+00
       2.4351970E-03
      -0.0000000E+00
       1.2267940E-02
       1.1463855E-02
       3.2634842E-02
       1.0227827E-02
       0.0000000E+00
       0.0000000E+00
       2.2489907E-02
       9.8735293E-03
       2.6938701E-02
       1.6544588E-02
       1.7192767E-02
       4.8598739E-02
       3.4609913E-02
       4.0114048E-02
       3.3222306E-02
       2.6075963E-02
       9.7960617E-03
       1.0710106E-02
       2.0649324E-03
       2.4435636E-03
       7.6421065E-03
      -0.0000000E+00
      -0.0000000E+00
       1.4853679E-02
       1.4876083E-02
       3.7751198E-02
       4.5332130E-02
       5.3333827E-02
       6.0924072E-02
       7.0692202E-03
       2.7189308E-03
       8.1647699E-03
       3.0741602E-02
       3.5171049E-02
       3.7929680E-02
       3.2778884E-02
       3.8586450E-02
       7.2457287E-03
       5.2619829E-02
       6.0096200E-02
       4.4056850E-02
       5.2969194E-02
       1.6698560E-03
       1.6971705E-02
       1.4696015E-03
       0.0000000E+00
       4.7971308E-04
       1.3712505E-02
       9.6911944E-03
       5.6584837E-02
       4.8890479E-02
       1.5000695E-03
       7.2232599E-03
       1.4410636E-02
       2.2369654E-02
       3.5421199E-02
       2.0377817E-02
       6.1529556E-06
       1.4238424E-02
       5.9770007E-02
       4.5395896E-02
       4.0406756E-02
       1.6809340E-03
       3.8939794E-02
       3.0952536E-02
       1.4158071E-02
       2.7924800E-02
       4.1656425E-02
      -0.0000000E+00
       5.0094418E-02
       3.6529429E-02
       1.0929814E-02
       2.3950386E-02
       3.2990256E-02
       5.2244794E-02
       4.3050514E-02
       5.3629518E-02
       5.1581074E-02
       5.8397631E-02
       6.1908342E-02
       6.0101100E-02
       5.7414019E-02
       4.4382610E-02
       1.1605042E-02
       7.8686401E-03
       4.7948794E-03
      -0.0000000E+00
       0.0000000E+00
       2.2265796E-02
       1.2096580E-02
       5.2640524E-02
       4.2888696E-02
       4.8292536E-03
      -0.0000000E+00
       1.7258648E-02
       2.3074980E-02
       0.0000000E+00
       3.8760676E-02
       4.5251042E-02
       0.0000000E+00
       3.8505767E-02
       8.8067291E-05
       2.3331499E-02
       5.7636934E-02
       5.4487999E-02
       6.1833669E-02
       3.3995728E-02
       8.3804605E-03
       1.9266225E-02
       2.7911487E-02
       0.0000000E+00
       3.0760315E-02
       1.5540488E-02
       2.1857429E-02
       5.0331723E-02
       2.7514297E-02
       1.4905816E-02
       2.1255998E-02
       4.1337855E-02
       3.2268720E-02
       5.8151617E-02
       1.1603610E-02
       4.7217019E-02
       4.6434163E-03
       3.3686865E-02
       2.1595385E-02
       3.6698682E-02
       4.2807804E-02
       2.5825452E-02
       3.2299354E-02
       3.5508707E-02
       1.7705155E-02
       2.4639714E-02
       0.0000000E+00
       0.0000000E+00
       5.4438046E-02
       1.4439699E-02
       4.4817969E-02
       2.3893275E-02
       2.9874188E-02
       3.4877458E-02
       4.1554800E-02
       2.7660543E-02
       4.2060175E-02
       6.0917299E-02
       5.0996191E-02
       4.2374319E-02
       2.4477145E-03
       2.3736919E-02
       1.6687791E-04
       5.3255602E-02
       5.1528645E-02
       5.9248999E-03
       1.1566220E-02
       6.8857320E-03
       5.4692570E-02
       5.1033952E-02
       3.0313360E-02
       3.9729786E-02
       1.6964394E-04
       4.8569103E-02
       6.0339949E-02
       2.1932055E-02
       1.4186555E-02
       4.3705561E-03
       1.1205010E-02
       2.8617594E-02
       1.9260966E-02
       2.4841497E-02
       1.7578308E-03
       1.1401685E-02
       7.8384711E-03
       1.5659749E-02
       1.3670252E-02
       6.6357800E-03
       5.8336326E-03
       3.3378216E-02
       2.9490475E-02
       3.4253016E-02
       2.0700288E-02
       2.9032859E-02
       2.4115812E-02
       6.4337988E-04
       1.8056145E-03
      -0.0000000E+00
       4.0667821E-03
       9.0807993E-03
       5.7968923E-03
       2.2312256E-03
       5.9535586E-03
       8.0642497E-03
       1.6014907E-02
       1.6263494E-02
       2.1595113E-02
       4.9313761E-02
       4.5488274E-02
       4.6307865E-02
       5.9479445E-02
       6.0716434E-02
       5.9604548E-02
       6.7995273E-03
       3.7570878E-03
       2.6267089E-03
       2.1336713E-03
       1.2317094E-04
       2.7034014E-03
       4.5692102E-02
       4.4140791E-02
       4.1384382E-02
       5.3015003E-02
       5.5637398E-02
       5.6208021E-02
       2.9576331E-02
       3.1003182E-02
       3.5345188E-02
       3.0733943E-02
       2.7043386E-02
       2.7058309E-02
       6.1566147E-02
       6.1957689E-02
       6.2352085E-02
       5.2923184E-03
       5.1262848E-03
       0.0000000E+00
       6.1336639E-03
       1.1082848E-02
       1.6301447E-02
       4.8347640E-02
       5.2364096E-02
       4.9714251E-02
       5.5382645E-02
       5.6262813E-02
       5.7066071E-02
       2.6495867E-02
       2.6016342E-02
       2.1030056E-02
       1.0279137E-02
       7.2390327E-03
       3.5411901E-03
       2.5137208E-03
       4.3625634E-03
       1.6277780E-03
       5.7420035E-03
       5.9744423E-03
       0.0000000E+00
       4.8029686E-02
       4.5720264E-02
       4.9532105E-02
       1.5880315E-03
       4.3171869E-05
       6.4564429E-04
       5.4920183E-02
       5.2574332E-02
       5.4642525E-02
       5.3502224E-03
       1.8119694E-03
       4.9625475E-03
       2.0719915E-02
       1.4973986E-02
       2.1619948E-02
       8.2743418E-03
       8.8775533E-03
       3.9428548E-02
       4.0254304E-02
       4.3384178E-02
       5.4181548E-02
       5.5516377E-02
       2.9628258E-02
       3.4022766E-02
       3.4318774E-02
       9.2636474E-03
       1.2447115E-03
       8.1802100E-03
       2.6095589E-02
       2.8645267E-02
       3.0674070E-02
       4.3481415E-02
       4.7880651E-02
       4.6953739E-02
       5.3486158E-02
       5.7161134E-02
       5.3859332E-02
       4.5287087E-02
       4.9589783E-02
       5.9543224E-02
       5.8090842E-02
       6.0149096E-02
       4.3334622E-02
       4.4923432E-02
       4.6212714E-02
       2.2668530E-02
       2.3715128E-02
       1.8830768E-02
       4.5788425E-02
       4.6068642E-02
       4.1515632E-02
       3.5716414E-02
       3.1243022E-02
       2.4916550E-02
       1.8776827E-02
       4.8730750E-02
       4.6482765E-02
       5.0204765E-02
       3.2874441E-02
       2.7004929E-02
       2.9203511E-02
       9.1804256E-03
       3.9202794E-03
       5.1428572E-03
       4.3796882E-03
       4.4895168E-03
       2.4009385E-03
       1.5064167E-02
       1.8994720E-02
       1.8794456E-02
       5.6036300E-02
       5.5014758E-02
       5.6716565E-02
       6.1071710E-03
       2.8947274E-06
       6.4961712E-03
       4.2074007E-02
       4.4932809E-02
       4.1478612E-02
       5.1785457E-03
       5.5037684E-03
       0.0000000E+00
       3.4670388E-03
       4.9590227E-03
       8.8910525E-03
       1.1795540E-02
       5.6616980E-03
       2.0790267E-02
       2.2406668E-02
       1.8718127E-02
       2.3209004E-02
       2.8341911E-02
       3.3841374E-02
       3.0122626E-02
       3.1766386E-02
       2.9222990E-02
       3.5691155E-02
       3.2609993E-02
       5.2590707E-02
       4.8404696E-02
       4.9987804E-02
       1.9313661E-02
       1.7535892E-02
       2.4031858E-02
       3.9925139E-02
       3.9084031E-02
       3.6133414E-02
       2.7451531E-02
       2.4903382E-02
       2.3894838E-02
       1.9028284E-03
       2.4928785E-03
       0.0000000E+00
       3.7067873E-02
       3.7117039E-02
       3.4081627E-02
       6.9749643E-03
       1.4692512E-02
       1.5577126E-02
       9.2786297E-03
       1.7533492E-02
       6.1283029E-02
       6.1730125E-02
       6.0483489E-02
       4.2470603E-02
       4.3792804E-02
       4.5861981E-02
       1.5856841E-02
       2.0001948E-02
       1.8173589E-02
       5.9159807E-03
       6.5232861E-04
       4.5029716E-03
       5.6111073E-02
       5.6575233E-02
       5.4373830E-02
       3.6041339E-02
       3.8134910E-02
       3.7148103E-02
       3.2698483E-02
       3.6642396E-02
       2.5725335E-02
       2.9622797E-02
       3.1290788E-02
       3.8982534E-02
       3.5710550E-02
       4.1356904E-02
       2.0672009E-02
       2.1786503E-02
       2.4294946E-04
       6.1515927E-03
       3.1362126E-02
       2.2872715E-02
       2.2134661E-02
       2.4712060E-02
       1.9184756E-02
       3.4291088E-02
       3.1120936E-02
       3.0646560E-02
       2.8679139E-02
       2.6256637E-02
       2.4174809E-02
       2.1615130E-03
       0.0000000E+00
       3.8232270E-02
       3.8835100E-02
       3.5176336E-02
       5.2212209E-02
       4.8256433E-02
       2.6053808E-02
       1.8815883E-02
       2.5312467E-02
       3.9131620E-02
       4.2982819E-02
       2.8839111E-03
       6.7689341E-03
       3.7610559E-03
       4.0306032E-02
       3.4676734E-02
       3.4436514E-02
       8.9396632E-03
       1.2051647E-02
       7.2422238E-03
       3.1220618E-02
       2.8798533E-02
       3.7466005E-03
      -0.0000000E+00
       4.1722436E-03
       2.9856365E-02
       3.4877988E-02
       3.3712300E-02
       3.2873206E-02
       2.6787955E-02
       1.9816173E-02
       2.0195664E-02
       2.4105792E-02
       4.3612825E-02
       4.0453234E-02
       6.1792309E-03
       1.1980970E-02
       1.0095937E-02
       7.0360659E-03
       7.1866299E-03
       3.6252457E-03
       0.0000000E+00
       3.1372319E-03
       2.7168659E-02
       3.2846741E-02
       3.1725011E-02
       1.1577222E-02
       7.3138564E-03
       4.0261776E-03
       3.0987514E-02
       3.3806535E-02
       3.0988888E-02
       1.5155136E-02
       1.3245358E-02
       6.0819808E-02
       6.1542529E-02
       6.1049525E-02
       5.5125222E-02
       5.4037891E-02
       5.3452539E-02
       5.2220520E-02
       5.5715032E-02
       5.3705080E-02
       5.5453072E-02
       5.5985946E-02
       1.0774389E-02
       1.0659973E-02
       3.4432694E-03
       2.8839111E-03
       5.9126205E-03
       1.6384217E-02
       2.3450838E-02
       1.6142170E-02
       1.2903580E-03
       4.0474066E-03
       1.0893076E-02
       7.0792843E-03
       4.3748045E-03
       1.6744640E-02
       9.7678580E-03
       1.4326701E-02
       7.9036640E-03
       7.5104517E-03
       6.6609842E-03
       1.1981584E-02
       1.0829116E-02
       2.2897496E-04
       1.9140197E-04
       9.9150383E-05
       3.9980554E-03
       1.0289216E-02
       4.1687705E-02
       4.2195143E-02
       3.8494185E-02
       5.4432110E-02
       5.2154344E-02
       5.2195623E-02
       4.1004784E-02
       3.7691957E-02
       2.0998450E-02
       2.4755057E-02
       2.8785246E-02
       3.4896035E-02
       3.0864586E-02
       3.6486872E-02
       3.6647636E-02
       3.1696116E-02
       0.0000000E+00
       2.2767866E-05
       7.2040140E-04
       0.0000000E+00
       1.3943253E-03
       1.2305725E-02
       1.8232141E-02
       5.9210721E-03
       5.8451479E-02
       5.7482446E-02
       5.9244079E-02
       5.8802842E-02
       6.0506970E-02
       5.8129103E-02
       6.0234114E-02
       5.7730299E-02
       5.7726089E-02
       4.9028581E-02
       3.8590296E-02
       3.5670644E-02
       4.1301982E-02
       4.5035964E-02
       4.1584780E-02
       4.6197558E-02
       5.1225677E-02
       5.0314593E-02
       3.9937364E-02
       3.6134545E-02
       2.1421280E-02
       2.4002207E-02
       1.4471240E-02
       2.3532752E-04
       5.8519833E-03
       0.0000000E+00
       2.3401753E-02
       1.8699851E-02
       2.3070679E-02
       2.5518823E-02
       6.8648430E-03
       4.0161331E-03
       2.5212812E-03
      -0.0000000E+00
       2.7662057E-03
       3.4563432E-03
       8.8929121E-03
       2.1449732E-03
       2.7190767E-03
       1.2115976E-04
      -0.0000000E+00
       5.5148899E-03
       5.8773472E-03
       0.0000000E+00
       5.4886161E-04
       1.2285977E-03
       1.1086934E-02
       2.0927316E-02
       2.4197742E-02
       2.4146738E-02
       5.9311593E-03
       8.2835018E-04
       1.8804240E-02
       2.2802065E-02
       1.3954957E-02
       1.6654173E-02
       3.0095026E-02
       3.5560129E-02
       3.8793330E-02
       3.9729127E-02
       2.7287997E-02
       2.7200787E-02
       2.1409857E-02
       4.0178367E-02
       4.0855490E-02
       4.3897032E-02
       3.7054022E-02
       4.7465449E-02
       4.8711280E-02
       5.1771406E-02
       3.5691484E-02
       5.0805065E-02
       5.0268383E-02
       2.3124255E-02
       1.5762074E-02
       9.4967475E-03
       1.0953005E-02
       7.1046852E-03
       5.9331126E-03
       8.0026704E-03
       1.8031635E-02
       2.0053182E-02
       1.5166243E-02
       1.6375127E-02
       1.0822077E-02
       1.7875533E-02
       2.2445583E-02
       2.0370047E-02
       3.1910170E-02
       3.0610678E-02
       3.5390467E-02
       1.9966543E-02
       2.6133875E-02
       1.8447659E-02
       1.1353199E-02
       1.5518473E-02
       6.1804870E-03
       6.2128790E-03
       0.0000000E+00
       1.8906406E-02
       1.3831932E-02
       1.7026032E-02
       1.0312677E-02
       2.3733639E-02
       3.1092167E-03
       0.0000000E+00
       2.7580615E-02
       2.7155898E-02
       2.7557665E-02
       2.4400779E-02
       1.7563042E-02
       1.9344604E-02
       0.0000000E+00
       6.3043165E-03
       4.0293011E-03
      -0.0000000E+00
       5.3371063E-03
       3.7461295E-03
       1.2543691E-02
       1.4027015E-02
       1.4243899E-02
       1.7217893E-02
       1.1599882E-02
       2.6285648E-03
      -0.0000000E+00
       5.6551135E-02
       5.9115143E-02
       5.8287484E-02
       3.6989160E-02
       4.3408312E-02
       4.1805986E-02
       4.6869613E-02
       4.5803725E-02
       5.0635975E-02
       6.1288399E-02
       6.2104275E-02
       6.2104279E-02
       5.8189741E-02
       5.6367138E-02
       6.0541086E-02
       5.8565810E-02
       5.8395802E-02
       6.1470934E-02
       5.6790738E-02
       5.8772569E-02
       5.9685580E-02
       6.1175009E-02
       6.0558915E-02
       5.8376210E-02
       5.8514022E-02
       5.2172996E-02
       5.2503498E-02
       4.9398444E-02
       4.4286716E-02
       3.3043938E-02
       3.4568492E-02
       5.1504625E-02
       3.6504506E-02
       3.2169936E-02
       3.7491387E-02
       4.9788630E-02
       4.5277419E-02
       4.4116545E-02
       4.0958427E-02
       4.1820692E-02
       5.0694895E-02
       4.6971819E-02
       3.7786460E-02
       3.7089496E-02
       1.7472949E-02
       7.4501712E-03
       1.3820792E-02
       6.9044884E-03
       5.1279250E-02
       4.8852427E-02
       5.2490644E-02
       4.7934464E-02
       5.1847334E-02
       4.9569031E-02
       5.2001445E-02
       5.3550031E-02
       5.4101887E-02
       3.9446357E-02
       3.8189008E-02
       5.1962979E-02
       4.8829073E-02
       2.3632091E-02
       1.8238125E-02
       2.2707650E-02
       3.6555580E-02
       3.2901357E-02
       5.1785721E-02
       5.3864154E-02
       4.6705249E-02
       4.5840616E-02
       1.8890431E-02
       2.2885063E-02
       1.9325740E-02
       2.7488277E-02
       2.8388521E-02
       2.2523895E-02
       2.6517808E-02
       7.2319425E-03
       7.6988350E-03
       1.3466123E-02
       1.7139480E-02
       1.5889282E-02
       2.5734517E-02
       3.0625312E-02
       1.0075977E-02
       8.7194316E-03
       1.2056617E-03
       5.5274023E-02
       5.5069946E-02
       5.2977546E-02
       4.9295823E-02
       5.1086590E-02
       3.9946950E-02
       4.3070147E-02
       4.2369608E-02
       4.5747774E-02
       4.6351406E-02
       4.9475402E-02
      -0.0000000E+00
       1.9061821E-02
       2.7662143E-02
       5.0297389E-02
       5.7636470E-02
       5.9283985E-02
       5.9532719E-02
       4.9814109E-02
       5.4118023E-02
       5.2926453E-02
       4.9164500E-02
       6.6318950E-03
       3.6618751E-02
       3.1915052E-02
       3.0874418E-02
       4.3003826E-02
       7.4700201E-03
       3.9490386E-02
       3.5853171E-02
       1.1219124E-02
       2.7350280E-02
       2.4525606E-02
       2.9134947E-02
       3.3019599E-02
       2.1582568E-02
       1.7220844E-02
       3.2307208E-02
       3.2399768E-02
       2.8186883E-02
       4.5909807E-02
       2.6040305E-02
       3.6065832E-03
       3.7233957E-03
      -0.0000000E+00
       1.8672802E-02
       2.2594993E-02
       1.1072259E-02
       1.1584073E-02
       1.6035214E-02
       9.7232077E-03
       1.2248515E-02
       6.9779245E-03
       1.2518415E-02
       1.9402505E-02
       1.3154661E-02
       1.3369531E-02
       3.5105881E-02
       3.7665284E-02
       3.3597946E-02
       2.5315338E-02
       2.0817016E-02
       1.4972693E-02
       9.5697036E-03
       1.6772685E-02
       0.0000000E+00
       1.0971552E-02
       3.1732742E-03
       5.8435330E-03
      -0.0000000E+00
       7.2927783E-03
       8.2664359E-04
       1.0434011E-02
       8.1686074E-03
       1.3826974E-02
       1.3623540E-02
       1.9867669E-02
       1.0966483E-02
       4.6140617E-04
       0.0000000E+00
       8.4561117E-04
       6.1375646E-03
       2.8607272E-02
       1.6659843E-02
       2.2471054E-02
       2.2111559E-02
       2.7577184E-02
       1.3446386E-02
       1.1052523E-02
       1.6224969E-02
       1.5714815E-02
       2.0486377E-02
       2.6232795E-03
       4.5686960E-04
       1.8284311E-02
       1.6684962E-02
       2.2389111E-02
       2.8026506E-02
       3.0460574E-02
       3.5204540E-02