# vtk DataFile Version 3.0
# Solution du M1 TR
ASCII
DATASET UNSTRUCTURED_GRID
POINTS     42  float
0.0000000E+00  0.0000000E+00  0.0000000E+00
0.0000000E+00  0.1000000E+01  0.0000000E+00
0.1000000E+01  0.1000000E+01  0.0000000E+00
0.1000000E+01  0.0000000E+00  0.0000000E+00
0.5000000E+00  0.5000000E+00  0.0000000E+00
0.0000000E+00  0.5000000E+00  0.0000000E+00
0.5000000E+00  0.0000000E+00  0.0000000E+00
0.2500000E+00  0.5000000E+00  0.0000000E+00
0.2500000E+00  0.9687500E+00  0.0000000E+00
0.5000000E+00  0.1000000E+01  0.0000000E+00
0.0000000E+00  0.2500000E+00  0.0000000E+00
0.3750000E+00  0.2500000E+00  0.0000000E+00
0.2500000E+00  0.3125000E-01  0.0000000E+00
0.1250000E+00  0.7500000E+00  0.0000000E+00
0.3911638E+00  0.7429957E+00  0.0000000E+00
0.1000000E+01  0.5000000E+00  0.0000000E+00
0.7500000E+00  0.0000000E+00  0.0000000E+00
0.6562500E+00  0.2656250E+00  0.0000000E+00
0.7500000E+00  0.4973958E+00  0.0000000E+00
0.8723823E+00  0.7500000E+00  0.0000000E+00
0.7500000E+00  0.9700452E+00  0.0000000E+00
0.6322989E+00  0.7103680E+00  0.0000000E+00
0.9186790E+00  0.2500000E+00  0.0000000E+00
0.5008484E+00  0.6462514E+00  0.0000000E+00
0.6257190E+00  0.5677212E+00  0.0000000E+00
0.5266793E+00  0.8371547E+00  0.0000000E+00
0.7663311E+00  0.6454318E+00  0.0000000E+00
0.7376584E+00  0.8191260E+00  0.0000000E+00
0.1250000E+00  0.3750000E+00  0.0000000E+00
0.1760417E+00  0.1989583E+00  0.0000000E+00
0.1250000E+00  0.5937500E+00  0.0000000E+00
0.6250000E+00  0.1052390E+00  0.0000000E+00
0.0000000E+00  0.7500000E+00  0.0000000E+00
0.1145833E+00  0.9010417E+00  0.0000000E+00
0.2599627E+00  0.8179678E+00  0.0000000E+00
0.3750000E+00  0.4062500E+00  0.0000000E+00
0.3854167E+00  0.9895833E-01  0.0000000E+00
0.8750000E+00  0.9756571E-01  0.0000000E+00
0.7926728E+00  0.3452888E+00  0.0000000E+00
0.1000000E+01  0.7500000E+00  0.0000000E+00
0.6241122E+00  0.4134706E+00  0.0000000E+00
0.8850551E+00  0.9011034E+00  0.0000000E+00
CELLS      70    280
3       7      30      28
3      28      30       5
3       9       1       8
3      31      16      37
3       5      30      32
3      11      36      31
3      28      11      35
3       7       4      23
3      29       0      12
3       1      33       8
3      30      14      34
3      24      23       4
3      25      34      14
3      29      11      28
3       4       7      35
3       0       6      12
3       6      36      12
3      11      40      35
3      24      18      26
3      25       9      34
3      15      19      26
3      22      37       3
3      17      31      37
3      40      38      18
3      39       2      41
3      40      18      24
3       2      20      41
3      25      20       9
3       2       9      20
3      25      14      23
3      26      21      24
3      27      19      41
3       3      15      22
3      38      15      18
3      25      23      21
3       7      23      14
3      23      24      21
3      40      24       4
3      25      21      27
3      34       9       8
3      15      26      18
3      27      26      19
3      25      27      20
3      26      27      21
3      29      28      10
3       5      10      28
3       0      29      10
3      29      12      36
3      14      30       7
3      32      30      13
3      11      31      17
3       6      16      31
3      33      32      13
3      32      33       1
3      34      33      13
3      33      34       8
3      30      34      13
3      28      35       7
3      40      11      17
3      31      36       6
3      29      36      11
3      37      22      38
3      16       3      37
3      37      38      17
3      15      38      22
3      19      15      39
3      35      40       4
3      38      40      17
3      27      41      20
3      39      41      19
CELL_TYPES      70
5
5
5
5
5
5
5
5
5
5
5
5
5
5
5
5
5
5
5
5
5
5
5
5
5
5
5
5
5
5
5
5
5
5
5
5
5
5
5
5
5
5
5
5
5
5
5
5
5
5
5
5
5
5
5
5
5
5
5
5
5
5
5
5
5
5
5
5
5
5
POINT_DATA      42
SCALARS hauteur float
LOOKUP_TABLE DEFAULT
       0.0000000E+00
      -0.0000000E+00
       0.0000000E+00
      -0.0000000E+00
       6.2500000E-02
       0.0000000E+00
       0.0000000E+00
       4.6875000E-02
       5.6762695E-03
      -0.0000000E+00
       0.0000000E+00
       4.3945312E-02
       5.6762695E-03
       2.0507812E-02
       4.5476373E-02
      -0.0000000E+00
       0.0000000E+00
       4.4004679E-02
       4.6873728E-02
       2.0874646E-02
       5.4482902E-03
       4.7835161E-02
       1.4007734E-02
       5.7152470E-02
       5.7474630E-02
       3.3984639E-02
       4.0979576E-02
       2.8671428E-02
       2.5634766E-02
       2.3117345E-02
       2.6382446E-02
       2.2069624E-02
       0.0000000E+00
       9.0462043E-03
       2.8645021E-02
       5.6533813E-02
       2.1120710E-02
       9.6301012E-03
       3.7152024E-02
      -0.0000000E+00
       5.6892541E-02
       9.0660002E-03
