# vtk DataFile Version 3.0
# Solution du M1 TR
ASCII
DATASET UNSTRUCTURED_GRID
POINTS    801  float
0.0000000E+00  0.0000000E+00  0.0000000E+00
0.0000000E+00  0.1000000E+01  0.0000000E+00
0.1000000E+01  0.1000000E+01  0.0000000E+00
0.1000000E+01  0.0000000E+00  0.0000000E+00
0.5000000E+00  0.5000000E+00  0.0000000E+00
0.0000000E+00  0.5000000E+00  0.0000000E+00
0.5000000E+00  0.0000000E+00  0.0000000E+00
0.2500000E+00  0.5000000E+00  0.0000000E+00
0.2500000E+00  0.9687500E+00  0.0000000E+00
0.5000000E+00  0.1000000E+01  0.0000000E+00
0.0000000E+00  0.2500000E+00  0.0000000E+00
0.3750000E+00  0.2500000E+00  0.0000000E+00
0.2500000E+00  0.3125000E-01  0.0000000E+00
0.1250000E+00  0.7500000E+00  0.0000000E+00
0.3911638E+00  0.7429957E+00  0.0000000E+00
0.1000000E+01  0.5000000E+00  0.0000000E+00
0.7500000E+00  0.0000000E+00  0.0000000E+00
0.6562500E+00  0.2656250E+00  0.0000000E+00
0.7500000E+00  0.4973958E+00  0.0000000E+00
0.8723823E+00  0.7500000E+00  0.0000000E+00
0.7500000E+00  0.9700452E+00  0.0000000E+00
0.6322989E+00  0.7103680E+00  0.0000000E+00
0.9186790E+00  0.2500000E+00  0.0000000E+00
0.5008484E+00  0.6462514E+00  0.0000000E+00
0.6257190E+00  0.5677212E+00  0.0000000E+00
0.5266793E+00  0.8371547E+00  0.0000000E+00
0.7663311E+00  0.6454318E+00  0.0000000E+00
0.7376584E+00  0.8191260E+00  0.0000000E+00
0.1250000E+00  0.3750000E+00  0.0000000E+00
0.1760417E+00  0.1989583E+00  0.0000000E+00
0.1250000E+00  0.5937500E+00  0.0000000E+00
0.6250000E+00  0.1052390E+00  0.0000000E+00
0.0000000E+00  0.7500000E+00  0.0000000E+00
0.1145833E+00  0.9010417E+00  0.0000000E+00
0.2599627E+00  0.8179678E+00  0.0000000E+00
0.3750000E+00  0.4062500E+00  0.0000000E+00
0.3854167E+00  0.9895833E-01  0.0000000E+00
0.8750000E+00  0.9756571E-01  0.0000000E+00
0.7926728E+00  0.3452888E+00  0.0000000E+00
0.1000000E+01  0.7500000E+00  0.0000000E+00
0.6241122E+00  0.4134706E+00  0.0000000E+00
0.8850551E+00  0.9011034E+00  0.0000000E+00
0.3750000E+00  0.5738533E+00  0.0000000E+00
0.9361911E+00  0.6250000E+00  0.0000000E+00
0.8748313E+00  0.5148913E+00  0.0000000E+00
0.1406250E+00  0.4843750E+00  0.0000000E+00
0.7508108E+00  0.1278183E+00  0.0000000E+00
0.3906250E-02  0.6250000E+00  0.0000000E+00
0.5030887E+00  0.1829537E+00  0.0000000E+00
0.2578125E+00  0.3281250E+00  0.0000000E+00
0.3882478E+00  0.8980833E+00  0.0000000E+00
0.1000000E+01  0.8750000E+00  0.0000000E+00
0.6191150E+00  0.9359067E+00  0.0000000E+00
0.6312034E+00  0.8168420E+00  0.0000000E+00
0.2783119E+00  0.1438971E+00  0.0000000E+00
0.6250000E+00  0.0000000E+00  0.0000000E+00
0.0000000E+00  0.8750000E+00  0.0000000E+00
0.8750000E+00  0.0000000E+00  0.0000000E+00
0.9230908E+00  0.3867911E+00  0.0000000E+00
0.8046824E+00  0.2302127E+00  0.0000000E+00
0.5303440E+00  0.3156721E+00  0.0000000E+00
0.4762698E+00  0.4014320E+00  0.0000000E+00
0.1178133E+00  0.7311825E-01  0.0000000E+00
0.7237960E-01  0.1705329E+00  0.0000000E+00
0.1020690E+00  0.2729310E+00  0.0000000E+00
0.0000000E+00  0.3750000E+00  0.0000000E+00
0.1000000E+01  0.2500000E+00  0.0000000E+00
0.9969894E+00  0.1250000E+00  0.0000000E+00
0.2566406E+00  0.6672397E+00  0.0000000E+00
0.1861416E+00  0.2830309E+00  0.0000000E+00
0.2658988E+00  0.2357703E+00  0.0000000E+00
0.3956900E-01  0.3125000E+00  0.0000000E+00
0.9375000E+00  0.4878285E-01  0.0000000E+00
0.8125000E+00  0.4878285E-01  0.0000000E+00
0.5478384E+00  0.4363424E+00  0.0000000E+00
0.4380560E+00  0.3174094E+00  0.0000000E+00
0.4519794E+00  0.2411886E+00  0.0000000E+00
0.1875000E+00  0.5468750E+00  0.0000000E+00
0.6445312E-01  0.4394531E+00  0.0000000E+00
0.2002065E+00  0.1036461E+00  0.0000000E+00
0.8750000E+00  0.1000000E+01  0.0000000E+00
0.7500000E+00  0.1000000E+01  0.0000000E+00
0.8221702E+00  0.9446692E+00  0.0000000E+00
0.9375000E+00  0.9563951E+00  0.0000000E+00
0.2599106E-01  0.8959510E-01  0.0000000E+00
0.6875000E+00  0.5261949E-01  0.0000000E+00
0.7224151E-01  0.8222415E+00  0.0000000E+00
0.8524368E+00  0.2933612E+00  0.0000000E+00
0.7211336E+00  0.2088007E+00  0.0000000E+00
0.7340614E+00  0.2890171E+00  0.0000000E+00
0.6429465E+00  0.1849796E+00  0.0000000E+00
0.7069791E+00  0.3758855E+00  0.0000000E+00
0.7459677E-01  0.5307460E+00  0.0000000E+00
0.8719553E+00  0.1809132E+00  0.0000000E+00
0.9274068E+00  0.8214683E+00  0.0000000E+00
0.5877997E+00  0.8725813E+00  0.0000000E+00
0.6830520E+00  0.8822521E+00  0.0000000E+00
0.3750000E+00  0.0000000E+00  0.0000000E+00
0.2500000E+00  0.0000000E+00  0.0000000E+00
0.4375000E+00  0.4344846E-01  0.0000000E+00
0.3224826E+00  0.5555556E-01  0.0000000E+00
0.3533462E+00  0.1726266E+00  0.0000000E+00
0.5625000E+00  0.5261949E-01  0.0000000E+00
0.1250000E+00  0.1000000E+01  0.0000000E+00
0.2500000E+00  0.1000000E+01  0.0000000E+00
0.6250000E-01  0.9565515E+00  0.0000000E+00
0.1775174E+00  0.9444444E+00  0.0000000E+00
0.2842371E+00  0.4154412E+00  0.0000000E+00
0.2055377E+00  0.3916016E+00  0.0000000E+00
0.4590292E+00  0.5733658E+00  0.0000000E+00
0.5424884E+00  0.5739198E+00  0.0000000E+00
0.5827105E+00  0.6452264E+00  0.0000000E+00
0.4098050E+00  0.4900516E+00  0.0000000E+00
0.3306035E+00  0.5062857E+00  0.0000000E+00
0.2866293E+00  0.5835493E+00  0.0000000E+00
0.7126852E+00  0.5764312E+00  0.0000000E+00
0.6867445E+00  0.6519537E+00  0.0000000E+00
0.7331323E+00  0.7291651E+00  0.0000000E+00
0.8071726E+00  0.7100728E+00  0.0000000E+00
0.1000000E+01  0.6250000E+00  0.0000000E+00
0.6638849E+00  0.4901900E+00  0.0000000E+00
0.4903282E+00  0.7448741E+00  0.0000000E+00
0.5699048E+00  0.7629687E+00  0.0000000E+00
0.1000000E+01  0.3750000E+00  0.0000000E+00
0.8381824E+00  0.4279440E+00  0.0000000E+00
0.7637566E+00  0.4241543E+00  0.0000000E+00
0.8473113E+00  0.6023785E+00  0.0000000E+00
0.8765666E+00  0.6733497E+00  0.0000000E+00
0.6250000E-01  0.6893921E+00  0.0000000E+00
0.9321698E+00  0.4633520E+00  0.0000000E+00
0.4116682E+00  0.6556927E+00  0.0000000E+00
0.3358283E+00  0.6839399E+00  0.0000000E+00
0.9424053E+00  0.5493859E+00  0.0000000E+00
0.6101384E+00  0.3330173E+00  0.0000000E+00
0.3424479E+00  0.3281250E+00  0.0000000E+00
0.6250000E+00  0.1000000E+01  0.0000000E+00
0.5722362E+00  0.2379112E+00  0.0000000E+00
0.1250000E+00  0.0000000E+00  0.0000000E+00
0.4961093E+00  0.1010641E+00  0.0000000E+00
0.2128157E+00  0.7436063E+00  0.0000000E+00
0.1634524E+00  0.6718750E+00  0.0000000E+00
0.4371347E+00  0.8214313E+00  0.0000000E+00
0.4772928E+00  0.9126717E+00  0.0000000E+00
0.8282243E+00  0.8297866E+00  0.0000000E+00
0.3001743E+00  0.8963449E+00  0.0000000E+00
0.1698254E+00  0.8289714E+00  0.0000000E+00
0.3480054E+00  0.8197554E+00  0.0000000E+00
0.3750000E+00  0.1000000E+01  0.0000000E+00
0.1762151E+00  0.4194615E-01  0.0000000E+00
0.9680956E+00  0.6875000E+00  0.0000000E+00
0.5469063E+00  0.9322093E+00  0.0000000E+00
0.6250000E-01  0.3707934E+00  0.0000000E+00
0.6820887E+00  0.9624413E+00  0.0000000E+00
0.6283049E-01  0.3080178E-01  0.0000000E+00
0.9361911E+00  0.7431794E+00  0.0000000E+00
0.5218015E+00  0.8878721E+00  0.0000000E+00
0.9679019E-01  0.3277273E+00  0.0000000E+00
0.1328125E+00  0.5390625E+00  0.0000000E+00
0.7504054E+00  0.6390916E-01  0.0000000E+00
0.1808216E-01  0.5619960E+00  0.0000000E+00
0.6339867E-01  0.6052890E+00  0.0000000E+00
0.4407875E+00  0.9872212E-01  0.0000000E+00
0.3001302E+00  0.3629749E+00  0.0000000E+00
0.4168318E+00  0.5420986E+00  0.0000000E+00
0.2903688E-02  0.9375000E+00  0.0000000E+00
0.2839818E+00  0.7336885E+00  0.0000000E+00
0.2128527E+00  0.2371791E+00  0.0000000E+00
0.4836318E+00  0.2863527E+00  0.0000000E+00
0.6721714E+00  0.5424286E+00  0.0000000E+00
0.9359947E+00  0.1112829E+00  0.0000000E+00
0.9517510E+00  0.1836890E+00  0.0000000E+00
0.6340995E+00  0.5261949E-01  0.0000000E+00
0.7019908E+00  0.4392806E+00  0.0000000E+00
0.9971438E+00  0.9375000E+00  0.0000000E+00
0.6661390E+00  0.6026597E+00  0.0000000E+00
0.9899528E+00  0.4375000E+00  0.0000000E+00
0.8913051E+00  0.4293793E+00  0.0000000E+00
0.6237410E+00  0.7635226E+00  0.0000000E+00
0.5733745E+00  0.7037785E+00  0.0000000E+00
0.5793104E+00  0.5064590E+00  0.0000000E+00
0.5229786E+00  0.7853125E+00  0.0000000E+00
0.3034500E+00  0.8451604E+00  0.0000000E+00
0.7822547E+00  0.5776973E+00  0.0000000E+00
0.8303615E+00  0.5489748E+00  0.0000000E+00
0.7835876E+00  0.7717209E+00  0.0000000E+00
0.8327043E+00  0.7801531E+00  0.0000000E+00
0.6854136E+00  0.7052936E+00  0.0000000E+00
0.1401991E+00  0.1391516E+00  0.0000000E+00
0.3283395E+00  0.5561428E+00  0.0000000E+00
0.0000000E+00  0.6250000E+00  0.0000000E+00
0.6875000E+00  0.0000000E+00  0.0000000E+00
0.1710391E+00  0.7760750E+00  0.0000000E+00
0.2251053E+00  0.8853554E+00  0.0000000E+00
0.2111577E+00  0.6918965E+00  0.0000000E+00
0.1739414E+00  0.3412283E+00  0.0000000E+00
0.5600424E+00  0.1189662E+00  0.0000000E+00
0.3167099E+00  0.2715566E+00  0.0000000E+00
0.3179855E+00  0.2157803E+00  0.0000000E+00
0.8613497E+00  0.2369903E+00  0.0000000E+00
0.8872119E+00  0.4878285E-01  0.0000000E+00
0.7922406E+00  0.2870790E+00  0.0000000E+00
0.6821759E+00  0.3204970E+00  0.0000000E+00
0.4171914E+00  0.6040837E+00  0.0000000E+00
0.4882813E-01  0.4873992E+00  0.0000000E+00
0.1564016E+00  0.4263176E+00  0.0000000E+00
0.2116657E+00  0.4524059E+00  0.0000000E+00
0.8074225E+00  0.1634024E+00  0.0000000E+00
0.8041188E+00  0.1058338E+00  0.0000000E+00
0.6952898E+00  0.1534009E+00  0.0000000E+00
0.1077902E+00  0.6507460E+00  0.0000000E+00
0.5775078E+00  0.2909159E+00  0.0000000E+00
0.6842144E+00  0.8280762E+00  0.0000000E+00
0.2569848E+00  0.8937590E-01  0.0000000E+00
0.8125000E+00  0.0000000E+00  0.0000000E+00
0.8592925E+00  0.3616068E+00  0.0000000E+00
0.9593395E+00  0.3125000E+00  0.0000000E+00
0.9023280E+00  0.3228164E+00  0.0000000E+00
0.7565694E+00  0.2442398E+00  0.0000000E+00
0.4976452E+00  0.4484264E+00  0.0000000E+00
0.3936018E+00  0.3526551E+00  0.0000000E+00
0.5596593E+00  0.3730253E+00  0.0000000E+00
0.1480720E+00  0.2449614E+00  0.0000000E+00
0.9984947E+00  0.6250000E-01  0.0000000E+00
0.9375000E+00  0.0000000E+00  0.0000000E+00
0.4081568E+00  0.1990040E+00  0.0000000E+00
[...]
POINT_DATA     801
SCALARS hauteur float
LOOKUP_TABLE DEFAULT
       0.0000000E+00
       0.0000000E+00
       0.0000000E+00
       0.0000000E+00
       6.2585456E-02
       0.0000000E+00
       0.0000000E+00
       4.6869311E-02
       5.6736117E-03
       0.0000000E+00
       0.0000000E+00
       4.4003654E-02
       5.6516512E-03
       2.0558870E-02
       4.5509896E-02
       0.0000000E+00
       0.0000000E+00
       4.4054883E-02
       4.6900167E-02
       2.0917019E-02
       5.3703318E-03
       4.7861600E-02
       1.4020831E-02
       5.7208406E-02
       5.7524437E-02
       3.3941911E-02
       4.1000931E-02
       2.8677666E-02
       2.5626476E-02
       2.3172273E-02
       2.6386505E-02
       2.2124996E-02
       0.0000000E+00
       9.0623932E-03
       2.8664313E-02
       5.6585176E-02
       2.1156755E-02
       9.6401578E-03
       3.7187586E-02
       0.0000000E+00
       5.6950897E-02
       9.0782182E-03
       5.7409118E-02
       1.3983368E-02
       2.7346831E-02
       3.0185737E-02
       2.0824564E-02
       9.0350428E-04
       3.7396519E-02
       4.2220109E-02
       2.1750173E-02
       0.0000000E+00
       1.4188713E-02
       3.4875625E-02
       2.4776128E-02
       0.0000000E+00
       0.0000000E+00
       0.0000000E+00
       1.6862906E-02
       2.7921935E-02
       5.3900469E-02
       5.9968850E-02
       6.9906816E-03
       9.4996938E-03
       1.8192971E-02
       0.0000000E+00
       0.0000000E+00
       3.3437958E-04
       4.2378003E-02
       3.0773163E-02
       3.5157206E-02
       8.1756064E-03
       2.7223593E-03
       7.0899939E-03
       6.0918656E-02
       5.3341767E-02
       4.5382508E-02
       3.7780031E-02
       1.4823974E-02
       1.4904944E-02
       0.0000000E+00
       0.0000000E+00
       7.6388775E-03
       2.4490609E-03
       2.0841506E-03
       1.0720465E-02
       9.7701436E-03
       2.6137103E-02
       3.3268002E-02
       4.0161694E-02
       3.4635892E-02
       4.8627440E-02
       1.7212355E-02
       1.6563454E-02
       9.9118005E-03
       2.6964349E-02
       2.2511369E-02
       0.0000000E+00
       0.0000000E+00
       1.0200070E-02
       1.1490375E-02
       3.2665227E-02
       1.2282928E-02
       0.0000000E+00
       0.0000000E+00
       2.4199293E-03
       7.6705331E-03
       4.9392433E-02
       3.8947424E-02
       6.0748339E-02
       6.0779559E-02
       5.5747203E-02
       6.0535297E-02
       5.5354252E-02
       4.9711515E-02
       5.0061073E-02
       4.8851149E-02
       3.8635586E-02
       3.2058435E-02
       0.0000000E+00
       5.5798210E-02
       4.7543755E-02
       4.4447041E-02
       0.0000000E+00
       3.3217348E-02
       4.4113064E-02
       3.1077007E-02
       2.3838935E-02
       1.2572731E-02
       1.5735773E-02
       5.4764244E-02
       4.8270279E-02
       1.3458253E-02
       5.2897325E-02
       4.9682413E-02
       0.0000000E+00
       4.4407728E-02
       0.0000000E+00
       2.2751898E-02
       3.1989562E-02
       3.0195529E-02
       3.6037097E-02
       1.9888191E-02
       2.0148552E-02
       1.9527761E-02
       2.0010960E-02
       3.3604976E-02
       0.0000000E+00
       5.8614601E-03
       6.6667674E-03
       1.5648685E-02
       1.3653365E-02
       7.8525462E-03
       1.6460967E-03
       1.1376459E-02
       2.4877596E-02
       1.9236273E-02
       2.8631961E-02
       1.1200254E-02
       4.3542002E-03
       1.4183460E-02
       2.1938427E-02
       4.8579085E-02
       6.0316936E-02
       1.6979459E-04
       3.9747650E-02
       3.0333226E-02
       5.1042886E-02
       5.4641162E-02
       5.8991560E-03
       6.9048583E-03
       1.1574507E-02
       5.1579496E-02
       1.6160715E-04
       5.3259330E-02
       2.4458035E-03
       2.3746252E-02
       4.2489959E-02
       5.1004171E-02
       6.1001248E-02
       4.2124370E-02
       2.7692339E-02
       4.1565753E-02
       3.4898080E-02
       2.9887089E-02
       2.3937603E-02
       4.4822856E-02
       1.4455181E-02
       5.4455543E-02
       0.0000000E+00
       0.0000000E+00
       2.4568822E-02
       1.7730944E-02
       3.5509632E-02
       3.2312401E-02
       2.5832250E-02
       4.2794730E-02
       3.6730866E-02
       2.1669567E-02
       4.6610668E-03
       3.3706206E-02
       4.7233782E-02
       5.8162549E-02
       1.1630301E-02
       3.2261571E-02
       4.1340631E-02
       2.1250174E-02
       1.4893339E-02
       2.7527420E-02
       2.1856647E-02
       5.0384522E-02
       3.0794791E-02
       1.5539371E-02
       0.0000000E+00
       2.7872663E-02
       8.3862209E-03
       1.9321210E-02
       3.4030168E-02
       6.1891486E-02
       5.4553229E-02
       5.7651479E-02
       2.3292881E-02
       8.8635010E-05
       0.0000000E+00
       3.8497705E-02
       4.5294910E-02
       3.8768661E-02
       0.0000000E+00
       2.3081906E-02
       1.7312670E-02
       0.0000000E+00
       4.7741252E-03
       4.2936338E-02
       5.2702752E-02
       1.2132729E-02
       2.2241370E-02
       0.0000000E+00
       0.0000000E+00
       4.8097952E-03
       7.8476957E-03
       1.1650991E-02
       5.7354319E-02
       4.4410707E-02
       6.0165072E-02
       6.1926536E-02
       5.8445427E-02
       5.3676983E-02
       5.1582570E-02
       4.3032023E-02
       5.2287497E-02
       3.3038204E-02
       3.6603354E-02
       2.4006605E-02
       1.0930374E-02
       5.0147628E-02
       0.0000000E+00
       4.1738770E-02
       2.7898322E-02
       3.0949467E-02
       1.4131563E-02
       3.8987100E-02
       1.6811998E-03
       4.0392496E-02
       4.5393186E-02
       5.9821413E-02
       6.1329201E-06
       1.4276364E-02
       3.5436780E-02
       2.0425249E-02
       2.2403795E-02
       1.4376139E-02
       4.8852542E-02
       7.2587505E-03
       1.4932087E-03
       1.3766364E-02
       5.6642572E-02
       9.6488665E-03
       4.7776856E-04
       0.0000000E+00
       1.6681603E-03
       1.4602162E-03
       1.7011783E-02
       6.0112164E-02
       5.3012847E-02
       4.4066222E-02
       7.2295698E-03
       5.2682321E-02
       3.7954065E-02
       3.8620286E-02
       3.2819018E-02
       0.0000000E+00
       0.0000000E+00
       0.0000000E+00
       0.0000000E+00
       4.2329571E-03
       9.0346732E-03
       1.7430679E-03
       4.5232916E-03
       4.0518660E-04
       7.5339483E-03
       1.1175279E-02
       9.4684119E-03
       1.6626777E-02
       2.3985235E-03
       3.2553666E-03
       7.3437219E-03
       4.7194820E-03
       9.6175297E-03
       7.2824876E-03
       4.6190738E-03
       1.2454746E-02
       3.2392021E-03
       4.7540599E-03
       1.8263109E-03
       5.2924069E-03
       1.0392156E-02
       3.2198464E-03
       4.4467184E-03
       1.2887175E-02
       1.3221873E-02
       1.0210019E-02
       1.1882563E-02
       1.7734736E-02
       1.4122310E-02
       2.0216783E-02
       1.0499260E-02
       1.4453018E-02
       1.8668570E-02
       2.1568382E-02
       2.6951065E-02
       1.8307245E-02
       6.2562669E-03
       1.2737404E-02
       2.3153468E-02
       2.4456056E-02
       2.6517247E-02
       1.7427079E-02
       2.8828236E-02
       3.1189966E-02
       2.2299660E-02
       7.7867146E-03
       5.9889750E-02
       3.0391244E-02
       6.2010678E-02
       6.0191214E-02
       4.7457666E-02
       4.8235190E-02
       5.7736655E-02
       5.8005399E-02
       5.8884957E-02
       3.2004965E-02
       1.5023630E-03
       3.6143932E-02
       3.8579370E-02
       1.7548511E-02
       1.2522711E-02
       8.5155285E-03
       4.6480063E-03
       1.1265392E-02
       5.5792393E-02
       3.7638518E-02
       4.2192013E-02
       4.5769165E-02
       4.4154270E-02
       4.1410502E-02
       4.5676852E-02
       3.5221876E-02
       4.4098521E-03
       3.7614736E-02
       3.1339462E-03
       2.8111060E-02
       6.0536593E-02
       5.8802787E-02
       5.9704369E-02
       5.8285770E-02
       5.6011785E-02
       5.2927124E-02
       5.5270589E-02
       7.3052875E-04
       5.8900329E-02
       5.7266423E-02
       5.7289367E-02
       5.4416279E-02
       5.4571650E-02
       5.1317543E-02
       4.7342852E-02
       4.2020743E-02
       3.5732022E-02
       4.0078236E-02
       2.1447252E-02
       2.3177533E-02
       1.9276719E-02
       2.7115207E-02
       2.1490261E-02
       1.6718811E-02
       1.4428005E-02
       1.3116293E-02
       5.6383424E-03
       6.0180796E-03
       1.7810239E-02
       4.8888563E-03
       1.9388723E-02
       3.8810880E-02
       5.7514868E-02
       5.8473128E-02
       5.2742134E-02
       5.1061522E-02
       4.2360491E-02
       3.7647352E-02
       4.0398078E-02
       3.3418130E-02
       2.8456463E-02
       2.6310628E-02
       2.9775367E-02
       2.0885432E-02
       1.5628998E-02
       1.6840660E-02
       1.3299614E-02
       6.6533541E-03
       1.4978686E-02
       5.8310509E-03
       0.0000000E+00
       3.1561280E-03
       1.4115960E-03
       6.0995098E-03
       5.4662751E-03
       1.7690304E-02
       1.7674952E-02
       8.8957116E-03
       2.9484788E-03
       4.9939280E-02
       5.2211182E-02
       4.9040713E-02
       4.6532419E-02
       3.8255314E-02
       4.1323234E-02
       3.8659279E-02
       3.3315355E-02
       3.9501015E-02
       7.6190348E-03
       1.5944101E-02
       4.1813739E-02
       3.8079709E-02
       4.0366184E-02
       2.2889881E-02
       2.9656654E-02
       1.9940649E-02
       2.3764414E-02
       3.5519809E-02
       4.7937853E-02
       1.5381530E-02
       6.1919290E-02
       6.1429247E-02
       2.5186526E-02
       2.9096362E-02
       3.4366382E-02
       3.2413047E-02
       3.8443551E-02
       4.5878989E-02
       2.4565916E-02
       3.6010334E-02
       4.1082696E-02
       4.4616845E-02
       4.7364121E-02
       7.7492899E-03
       1.2151424E-02
       1.4470470E-02
       1.0251239E-02
       1.8621021E-02
       2.3358145E-02
       7.9729357E-03
       4.0577524E-03
       1.2054746E-02
       1.2793688E-02
       1.0753940E-02
       1.6463088E-02
       0.0000000E+00
       0.0000000E+00
       7.4771502E-03
       1.7415757E-03
       0.0000000E+00
       1.2824954E-02
       4.5149428E-03
       1.9478768E-02
       4.4924851E-03
       4.0588482E-03
       2.2747522E-02
       2.7940146E-02
       8.7781240E-03
       4.0857735E-03
       1.1380879E-02
       1.3953923E-02
       1.7798764E-02
       4.4173964E-02
       4.3394247E-02
       4.4436124E-02
       4.6960702E-02
       4.9565671E-02
       2.7534932E-02
       4.6313118E-02
       4.0663165E-03
       4.5269742E-02
       6.1196591E-02
       5.5828502E-02
       5.3112488E-02
       4.6066718E-02
       4.9869849E-02
       4.4481385E-02
       4.6246368E-02
       4.9734838E-02
       4.3857176E-02
       4.2400123E-02
       4.3631997E-02
       3.8083948E-02
       3.3250232E-02
       3.2415265E-02
       3.9722072E-02
       4.8587040E-02
       2.8912858E-02
       5.2471830E-02
       5.4657394E-02
       2.2530476E-02
       6.1189275E-02
       6.1526153E-02
       6.1634759E-02
       0.0000000E+00
       1.4104237E-02
       1.4809027E-02
       2.3295890E-02
       6.8063262E-03
       1.0234092E-02
       1.4990642E-02
       1.2857823E-03
       2.3057412E-02
       2.4595984E-02
       3.0870767E-02
       3.3803622E-02
       2.6987205E-02
       3.3599727E-02
       3.8600276E-02
       3.6122158E-02
       2.9420173E-02
       4.1110201E-02
       1.7911999E-02
       2.5418881E-02
       2.8323368E-02
       3.2658696E-02
       2.6546497E-02
       3.6240869E-02
       2.9944686E-02
       6.1131057E-02
       3.5789430E-02
       3.1129651E-02
       3.0151307E-02
       3.1998921E-02
       2.7275108E-02
       2.3483399E-02
       1.9092093E-02
       5.9861998E-02
       5.8964312E-02
       4.5040427E-02
       3.2915789E-02
       2.8238540E-02
       3.1453470E-02
       3.0651491E-02
       2.3991711E-02
       2.2042133E-02
       1.6786586E-02
       2.4493323E-02
       2.6477939E-02
       2.3285744E-02
       3.4806756E-02
       5.6926911E-02
       5.9284189E-02
       5.8688132E-02
       5.5902683E-02
       5.9366933E-02
       5.5393747E-02
       5.3814180E-02
       5.2822717E-02
       5.0628954E-02
       5.3904210E-02
       5.1782003E-02
       4.7740358E-02
       1.9386119E-02
       2.6291936E-02
       2.4849844E-02
       1.8127464E-02
       1.1299841E-02
       7.1591567E-03
       8.6161920E-03
       1.1042061E-02
       1.9360299E-03
       2.0008636E-02
       3.6723915E-02
       3.7869387E-02
       1.6190885E-02
       1.5843701E-02
       1.2688634E-02
       7.4214955E-03
       3.5989825E-02
       2.9870230E-02
       2.8303414E-02
       1.6448825E-02
       6.2211780E-02
       3.4241018E-02
       3.1289859E-02
       2.9713362E-02
       5.9355761E-03
       5.5011565E-02
       4.7917620E-02
       5.1939855E-02
       3.8407900E-02
       5.0560020E-02
       2.7061853E-02
       2.3812327E-02
       1.6806141E-02
       1.8642488E-02
       2.5345308E-02
       2.9689209E-02
       2.4837779E-02
       3.4075038E-02
       3.4373016E-02
       6.2270195E-02
       3.1588373E-03
       2.6664815E-02
       2.5245814E-02
       2.7168713E-02
       2.5562773E-02
       1.9757854E-02
       2.6584070E-02
       2.9973327E-02
       3.6215141E-02
       4.1425887E-02
       2.5537030E-02
       7.0979491E-03
       1.3543315E-03
       1.8504857E-02
       5.6438494E-03
       1.7193117E-02
       1.0691421E-02
       6.2010451E-02
       3.0453325E-02
       3.9612352E-02
       3.4295445E-02
       4.5763244E-02
       4.6289095E-02
       4.8279909E-02
       4.4546121E-02
       4.8697196E-02
       5.1477371E-02
       4.0719715E-02
       5.0270831E-02
       5.1633453E-02
       1.5939221E-03
       2.6801491E-03
       2.7765184E-02
       4.7684090E-03
       5.5185309E-02
       5.4161108E-02
       5.4716674E-02
       5.2925276E-02
       5.1435506E-02
       5.0469837E-02
       5.4687754E-02
       5.6474132E-02
       4.8736354E-02
       7.3856618E-03
       1.3296318E-02
       2.0695346E-02
       3.2650105E-02
       5.0031959E-02
       4.6998763E-02
       5.1201934E-02
       3.8602948E-02
       2.9156655E-02
       2.5614665E-02
       2.6658248E-02
       2.0771228E-02
       2.3001082E-02
       4.0126877E-02
       3.5853628E-02
       3.8303274E-02
       4.3215016E-02
       3.4554726E-02
       7.3561726E-03
       9.3006652E-03
       1.2987289E-02
       7.2974621E-03
       5.3991754E-02
       5.8132884E-02
       5.8376336E-02
       5.5824030E-02
       5.7999049E-02
       4.0304598E-02
       3.3264397E-02
       4.0143792E-02
       3.0422366E-02
       3.3928370E-02
       4.0034926E-02
       2.7558232E-02
       2.5864600E-02
       4.2061621E-02
       4.1375358E-02
       6.9336209E-03
       3.8457801E-03
       1.6739539E-02
       2.1925408E-02
       1.0852846E-02
       4.5116820E-03
       2.9580852E-03
       4.6723517E-03
       8.3044089E-03
       0.0000000E+00
       6.6689520E-04
       1.7497372E-03
       5.0932551E-03
       3.7151471E-02
       3.6396531E-02
       3.7313566E-02
       3.5908104E-02
       3.6114766E-02
       2.0868657E-02
       2.0751314E-02
       2.6296933E-02
       1.1033623E-02
       7.3230230E-03
       5.0633275E-03
       4.8808271E-02
       5.0423178E-02
       4.9997567E-02
       4.6672980E-02
       9.4275658E-03
       4.7143740E-03
       5.4348165E-03
       0.0000000E+00
       1.7425517E-03
       6.7997110E-04
       3.9754252E-03
       4.1230969E-04
       1.9755398E-02
       1.3336712E-02
       6.6008241E-03
       2.2146763E-02
       2.0377067E-02
       1.4239590E-02
       1.6380978E-02
       2.3026109E-02
       1.9003398E-02
       2.4547408E-03
       4.3551995E-02
       3.9186871E-02
       4.9504810E-02
       3.7828558E-02
       1.4046777E-02
       1.8885890E-02
       6.9108232E-03
       8.4817977E-03
       5.5074766E-03
       5.4475631E-02
       4.8256196E-03
       1.3738729E-03
       5.6346865E-03
       6.0131820E-03
       1.1262289E-02
       1.5497629E-02
       1.5727642E-02
       4.7151399E-02
       5.0533064E-02
       5.9554660E-02
       5.1372408E-02
       2.6012005E-03
       1.8497841E-02
       4.7063057E-02
       5.6899574E-02
       1.6692414E-02
       2.0677931E-02
       1.9038439E-02
       3.3605766E-02
       5.1702680E-02
       5.3719515E-02
       3.0261822E-02
       4.2459134E-02
       4.4804845E-02
       1.4787580E-02
       1.2215333E-02
       2.6672287E-03
       6.7656715E-04
       5.9422967E-03
       1.1612548E-02
       5.6448496E-03
       0.0000000E+00
       4.4285554E-04
       7.9929359E-03
       7.9140292E-03
       7.0044091E-04
       0.0000000E+00
       1.7612973E-03
       0.0000000E+00
       4.8106919E-04
       0.0000000E+00
