# vtk DataFile Version 3.0
# Solution du M1 TR
ASCII
DATASET UNSTRUCTURED_GRID
POINTS    560  float
0.0000000E+00  0.0000000E+00  0.0000000E+00
0.0000000E+00  0.1000000E+01  0.0000000E+00
0.1000000E+01  0.1000000E+01  0.0000000E+00
0.1000000E+01  0.0000000E+00  0.0000000E+00
0.5000000E+00  0.5000000E+00  0.0000000E+00
0.0000000E+00  0.5000000E+00  0.0000000E+00
0.5000000E+00  0.0000000E+00  0.0000000E+00
0.2500000E+00  0.5000000E+00  0.0000000E+00
0.2500000E+00  0.9687500E+00  0.0000000E+00
0.5000000E+00  0.1000000E+01  0.0000000E+00
0.0000000E+00  0.2500000E+00  0.0000000E+00
0.3750000E+00  0.2500000E+00  0.0000000E+00
0.2500000E+00  0.3125000E-01  0.0000000E+00
0.1250000E+00  0.7500000E+00  0.0000000E+00
0.3911638E+00  0.7429957E+00  0.0000000E+00
0.1000000E+01  0.5000000E+00  0.0000000E+00
0.7500000E+00  0.0000000E+00  0.0000000E+00
0.6562500E+00  0.2656250E+00  0.0000000E+00
0.7500000E+00  0.4973958E+00  0.0000000E+00
0.8723823E+00  0.7500000E+00  0.0000000E+00
0.7500000E+00  0.9700452E+00  0.0000000E+00
0.6322989E+00  0.7103680E+00  0.0000000E+00
0.9186790E+00  0.2500000E+00  0.0000000E+00
0.6241122E+00  0.4134706E+00  0.0000000E+00
0.8850551E+00  0.9011034E+00  0.0000000E+00
0.8750000E+00  0.9756571E-01  0.0000000E+00
0.1000000E+01  0.7500000E+00  0.0000000E+00
0.7926728E+00  0.3452888E+00  0.0000000E+00
0.3854167E+00  0.9895833E-01  0.0000000E+00
0.2599627E+00  0.8179678E+00  0.0000000E+00
0.3750000E+00  0.4062500E+00  0.0000000E+00
0.1145833E+00  0.9010417E+00  0.0000000E+00
0.0000000E+00  0.7500000E+00  0.0000000E+00
0.1250000E+00  0.5937500E+00  0.0000000E+00
0.6250000E+00  0.1052390E+00  0.0000000E+00
0.7376584E+00  0.8191260E+00  0.0000000E+00
0.1760417E+00  0.1989583E+00  0.0000000E+00
0.1250000E+00  0.3750000E+00  0.0000000E+00
0.7663311E+00  0.6454318E+00  0.0000000E+00
0.5266793E+00  0.8371547E+00  0.0000000E+00
0.5008484E+00  0.6462514E+00  0.0000000E+00
0.6257190E+00  0.5677212E+00  0.0000000E+00
0.2566406E+00  0.6672397E+00  0.0000000E+00
0.9969894E+00  0.1250000E+00  0.0000000E+00
0.1000000E+01  0.2500000E+00  0.0000000E+00
0.0000000E+00  0.3750000E+00  0.0000000E+00
0.1020690E+00  0.2729310E+00  0.0000000E+00
0.7237960E-01  0.1705329E+00  0.0000000E+00
0.1178133E+00  0.7311825E-01  0.0000000E+00
0.4762698E+00  0.4014320E+00  0.0000000E+00
0.5303440E+00  0.3156721E+00  0.0000000E+00
0.8046824E+00  0.2302127E+00  0.0000000E+00
0.9230908E+00  0.3867911E+00  0.0000000E+00
0.8750000E+00  0.0000000E+00  0.0000000E+00
0.0000000E+00  0.8750000E+00  0.0000000E+00
0.2783119E+00  0.1438971E+00  0.0000000E+00
0.6250000E+00  0.0000000E+00  0.0000000E+00
0.6191150E+00  0.9359067E+00  0.0000000E+00
0.6312034E+00  0.8168420E+00  0.0000000E+00
0.1000000E+01  0.8750000E+00  0.0000000E+00
0.2578125E+00  0.3281250E+00  0.0000000E+00
0.3882478E+00  0.8980833E+00  0.0000000E+00
0.5030887E+00  0.1829537E+00  0.0000000E+00
0.3906250E-02  0.6250000E+00  0.0000000E+00
0.7508108E+00  0.1278183E+00  0.0000000E+00
0.1406250E+00  0.4843750E+00  0.0000000E+00
0.8748313E+00  0.5148913E+00  0.0000000E+00
0.9361911E+00  0.6250000E+00  0.0000000E+00
0.3750000E+00  0.5738533E+00  0.0000000E+00
0.3750000E+00  0.1000000E+01  0.0000000E+00
0.3001743E+00  0.8963449E+00  0.0000000E+00
0.3480054E+00  0.8197554E+00  0.0000000E+00
0.1698254E+00  0.8289714E+00  0.0000000E+00
0.4371347E+00  0.8214313E+00  0.0000000E+00
0.8282243E+00  0.8297866E+00  0.0000000E+00
0.4772928E+00  0.9126717E+00  0.0000000E+00
0.1634524E+00  0.6718750E+00  0.0000000E+00
0.2128157E+00  0.7436063E+00  0.0000000E+00
0.4961093E+00  0.1010641E+00  0.0000000E+00
0.6250000E+00  0.1000000E+01  0.0000000E+00
0.1250000E+00  0.0000000E+00  0.0000000E+00
0.5722362E+00  0.2379112E+00  0.0000000E+00
0.3424479E+00  0.3281250E+00  0.0000000E+00
0.9424053E+00  0.5493859E+00  0.0000000E+00
0.6101384E+00  0.3330173E+00  0.0000000E+00
0.9321698E+00  0.4633520E+00  0.0000000E+00
0.3358283E+00  0.6839399E+00  0.0000000E+00
0.4116682E+00  0.6556927E+00  0.0000000E+00
0.6250000E-01  0.6893921E+00  0.0000000E+00
0.8765666E+00  0.6733497E+00  0.0000000E+00
0.8473113E+00  0.6023785E+00  0.0000000E+00
0.7637566E+00  0.4241543E+00  0.0000000E+00
0.8381824E+00  0.4279440E+00  0.0000000E+00
0.1000000E+01  0.3750000E+00  0.0000000E+00
0.4903282E+00  0.7448741E+00  0.0000000E+00
0.5699048E+00  0.7629687E+00  0.0000000E+00
0.6638849E+00  0.4901900E+00  0.0000000E+00
0.1000000E+01  0.6250000E+00  0.0000000E+00
0.7331323E+00  0.7291651E+00  0.0000000E+00
0.8071726E+00  0.7100728E+00  0.0000000E+00
0.2866293E+00  0.5835493E+00  0.0000000E+00
0.6867445E+00  0.6519537E+00  0.0000000E+00
0.7126852E+00  0.5764312E+00  0.0000000E+00
0.4098050E+00  0.4900516E+00  0.0000000E+00
0.3306035E+00  0.5062857E+00  0.0000000E+00
0.4590292E+00  0.5733658E+00  0.0000000E+00
0.5827105E+00  0.6452264E+00  0.0000000E+00
0.5424884E+00  0.5739198E+00  0.0000000E+00
0.2055377E+00  0.3916016E+00  0.0000000E+00
0.2842371E+00  0.4154412E+00  0.0000000E+00
0.1775174E+00  0.9444444E+00  0.0000000E+00
0.2500000E+00  0.1000000E+01  0.0000000E+00
0.6250000E-01  0.9565515E+00  0.0000000E+00
0.1250000E+00  0.1000000E+01  0.0000000E+00
0.5625000E+00  0.5261949E-01  0.0000000E+00
0.3224826E+00  0.5555556E-01  0.0000000E+00
0.3533462E+00  0.1726266E+00  0.0000000E+00
0.4375000E+00  0.4344846E-01  0.0000000E+00
0.3750000E+00  0.0000000E+00  0.0000000E+00
0.2500000E+00  0.0000000E+00  0.0000000E+00
0.6830520E+00  0.8822521E+00  0.0000000E+00
0.9274068E+00  0.8214683E+00  0.0000000E+00
0.5877997E+00  0.8725813E+00  0.0000000E+00
0.8719553E+00  0.1809132E+00  0.0000000E+00
0.7459677E-01  0.5307460E+00  0.0000000E+00
0.7069791E+00  0.3758855E+00  0.0000000E+00
0.6429465E+00  0.1849796E+00  0.0000000E+00
0.7340614E+00  0.2890171E+00  0.0000000E+00
0.7211336E+00  0.2088007E+00  0.0000000E+00
0.8524368E+00  0.2933612E+00  0.0000000E+00
0.7224151E-01  0.8222415E+00  0.0000000E+00
0.6875000E+00  0.5261949E-01  0.0000000E+00
0.2599106E-01  0.8959510E-01  0.0000000E+00
0.9375000E+00  0.9563951E+00  0.0000000E+00
0.8221702E+00  0.9446692E+00  0.0000000E+00
0.7500000E+00  0.1000000E+01  0.0000000E+00
0.8750000E+00  0.1000000E+01  0.0000000E+00
0.6445312E-01  0.4394531E+00  0.0000000E+00
0.2002065E+00  0.1036461E+00  0.0000000E+00
0.1875000E+00  0.5468750E+00  0.0000000E+00
0.4519794E+00  0.2411886E+00  0.0000000E+00
0.4380560E+00  0.3174094E+00  0.0000000E+00
0.5478384E+00  0.4363424E+00  0.0000000E+00
0.8125000E+00  0.4878285E-01  0.0000000E+00
0.9375000E+00  0.4878285E-01  0.0000000E+00
0.3956900E-01  0.3125000E+00  0.0000000E+00
0.1861416E+00  0.2830309E+00  0.0000000E+00
0.2658988E+00  0.2357703E+00  0.0000000E+00
0.1562500E+00  0.5703125E+00  0.0000000E+00
0.1328125E+00  0.5390625E+00  0.0000000E+00
0.1640625E+00  0.5156250E+00  0.0000000E+00
0.1025391E+00  0.4619141E+00  0.0000000E+00
0.9472656E-01  0.4072266E+00  0.0000000E+00
0.1328125E+00  0.4296875E+00  0.0000000E+00
0.3125000E-01  0.9782758E+00  0.0000000E+00
0.9375000E-01  0.9782758E+00  0.0000000E+00
0.6250000E-01  0.1000000E+01  0.0000000E+00
0.7812500E+00  0.2439143E-01  0.0000000E+00
0.7816554E+00  0.8830059E-01  0.0000000E+00
0.7504054E+00  0.6390916E-01  0.0000000E+00
0.3925151E-01  0.5778730E+00  0.0000000E+00
0.1953125E-02  0.5625000E+00  0.0000000E+00
0.3729839E-01  0.5153730E+00  0.0000000E+00
0.4114583E+00  0.7120340E-01  0.0000000E+00
0.4668046E+00  0.7225630E-01  0.0000000E+00
0.4407630E+00  0.1000112E+00  0.0000000E+00
0.3133425E+00  0.3717831E+00  0.0000000E+00
0.2710248E+00  0.3717831E+00  0.0000000E+00
0.3001302E+00  0.3281250E+00  0.0000000E+00
0.4170146E+00  0.5736096E+00  0.0000000E+00
0.3924025E+00  0.5319525E+00  0.0000000E+00
0.4344171E+00  0.5317087E+00  0.0000000E+00
0.1626033E+00  0.5182305E-01  0.0000000E+00
0.1590099E+00  0.8838218E-01  0.0000000E+00
0.1214067E+00  0.3655913E-01  0.0000000E+00
0.3125000E-01  0.9157758E+00  0.0000000E+00
0.0000000E+00  0.9375000E+00  0.0000000E+00
0.2347281E+00  0.7054230E+00  0.0000000E+00
0.2962344E+00  0.6755898E+00  0.0000000E+00
0.2743220E+00  0.7137731E+00  0.0000000E+00
0.6347275E+00  0.6485900E+00  0.0000000E+00
0.6042147E+00  0.6064738E+00  0.0000000E+00
0.6562318E+00  0.6098374E+00  0.0000000E+00
0.4819070E+00  0.8292930E+00  0.0000000E+00
0.5019860E+00  0.8749132E+00  0.0000000E+00
0.4572137E+00  0.8670515E+00  0.0000000E+00
0.2209702E+00  0.2173643E+00  0.0000000E+00
0.2260202E+00  0.2594006E+00  0.0000000E+00
0.1810916E+00  0.2409946E+00  0.0000000E+00
0.4549025E+00  0.4950258E+00  0.0000000E+00
0.4795146E+00  0.5366829E+00  0.0000000E+00
0.4687500E+00  0.2172423E-01  0.0000000E+00
0.4062500E+00  0.2172423E-01  0.0000000E+00
0.4375000E+00  0.0000000E+00  0.0000000E+00
0.3487413E+00  0.2777778E-01  0.0000000E+00
0.3802083E+00  0.4947917E-01  0.0000000E+00
0.3539497E+00  0.7725694E-01  0.0000000E+00
0.4911617E+00  0.2784303E+00  0.0000000E+00
0.4842000E+00  0.3165407E+00  0.0000000E+00
0.4450177E+00  0.2792990E+00  0.0000000E+00
0.6882851E+00  0.5333106E+00  0.0000000E+00
0.6692021E+00  0.5720762E+00  0.0000000E+00
0.6448020E+00  0.5289556E+00  0.0000000E+00
0.4327703E+00  0.9053775E+00  0.0000000E+00
0.4126912E+00  0.8597573E+00  0.0000000E+00
0.9680956E+00  0.6875000E+00  0.0000000E+00
0.9680956E+00  0.6250000E+00  0.0000000E+00
0.1000000E+01  0.6875000E+00  0.0000000E+00
0.9062500E+00  0.7317428E-01  0.0000000E+00
0.9672447E+00  0.8689143E-01  0.0000000E+00
0.9359947E+00  0.1112829E+00  0.0000000E+00
0.6562500E+00  0.2630974E-01  0.0000000E+00
0.6562500E+00  0.7892923E-01  0.0000000E+00
0.6250000E+00  0.5261949E-01  0.0000000E+00
0.6854320E+00  0.4330378E+00  0.0000000E+00
0.7353679E+00  0.4000199E+00  0.0000000E+00
0.7138208E+00  0.4571722E+00  0.0000000E+00
0.9687500E+00  0.9156976E+00  0.0000000E+00
0.1000000E+01  0.9375000E+00  0.0000000E+00
0.9687500E+00  0.9781976E+00  0.0000000E+00
0.6439986E+00  0.4518303E+00  0.0000000E+00
0.6655457E+00  0.3946781E+00  0.0000000E+00
0.9112776E+00  0.9287493E+00  0.0000000E+00
0.9062500E+00  0.9781976E+00  0.0000000E+00
0.8800276E+00  0.9505517E+00  0.0000000E+00
[...]
POINT_DATA     560
SCALARS hauteur float
LOOKUP_TABLE DEFAULT
       0.0000000E+00
      -0.0000000E+00
       0.0000000E+00
      -0.0000000E+00
       6.2500000E-02
       0.0000000E+00
       0.0000000E+00
       4.6875000E-02
       5.6762695E-03
      -0.0000000E+00
       0.0000000E+00
       4.3945312E-02
       5.6762695E-03
       2.0507812E-02
       4.5476373E-02
      -0.0000000E+00
       0.0000000E+00
       4.4004679E-02
       4.6873728E-02
       2.0874646E-02
       5.4482902E-03
       4.7835161E-02
       1.4007734E-02
       5.6892541E-02
       9.0660002E-03
       9.6301012E-03
      -0.0000000E+00
       3.7152024E-02
       2.1120710E-02
       2.8645021E-02
       5.6533813E-02
       9.0462043E-03
       0.0000000E+00
       2.6382446E-02
       2.2069624E-02
       2.8671428E-02
       2.3117345E-02
       2.5634766E-02
       4.0979576E-02
       3.3984639E-02
       5.7152470E-02
       5.7474630E-02
       4.2358205E-02
       3.2828889E-04
      -0.0000000E+00
       0.0000000E+00
       1.8187178E-02
       9.4971595E-03
       7.0437691E-03
       5.9935776E-02
       5.3806901E-02
       2.7852605E-02
       1.6838674E-02
       0.0000000E+00
       0.0000000E+00
       2.4743396E-02
       0.0000000E+00
       1.4145232E-02
       3.4827337E-02
      -0.0000000E+00
       4.2183772E-02
       2.1739347E-02
       3.7368981E-02
       9.1195107E-04
       2.0857383E-02
       3.0182898E-02
       2.7351089E-02
       1.4000928E-02
       5.7315397E-02
      -0.0000000E+00
       1.9517723E-02
       3.3525591E-02
       1.9988507E-02
       3.6090790E-02
       2.0094156E-02
       1.9884414E-02
       3.0144620E-02
       3.1939675E-02
       2.2711167E-02
      -0.0000000E+00
       0.0000000E+00
       4.4381286E-02
       4.9642368E-02
       1.3437010E-02
       5.2834815E-02
       1.5722385E-02
       4.8215343E-02
       5.4678456E-02
       1.2546717E-02
       2.3798053E-02
       3.0987698E-02
       4.4070168E-02
       3.3203957E-02
      -0.0000000E+00
       4.7491394E-02
       4.4328128E-02
       5.5763957E-02
      -0.0000000E+00
       3.8637486E-02
       3.2042547E-02
       4.9690911E-02
       4.8814370E-02
       4.9995075E-02
       6.0442279E-02
       5.5317460E-02
       6.0743748E-02
       5.5661349E-02
       6.0692513E-02
       3.8904270E-02
       4.9406915E-02
       7.6607534E-03
      -0.0000000E+00
       2.4351970E-03
      -0.0000000E+00
       1.2267940E-02
       1.1463855E-02
       3.2634842E-02
       1.0227827E-02
       0.0000000E+00
       0.0000000E+00
       2.2489907E-02
       9.8735293E-03
       2.6938701E-02
       1.6544588E-02
       1.7192767E-02
       4.8598739E-02
       3.4609913E-02
       4.0114048E-02
       3.3222306E-02
       2.6075963E-02
       9.7960617E-03
       1.0710106E-02
       2.0649324E-03
       2.4435636E-03
       7.6421065E-03
      -0.0000000E+00
      -0.0000000E+00
       1.4853679E-02
       1.4876083E-02
       3.7751198E-02
       4.5332130E-02
       5.3333827E-02
       6.0924072E-02
       7.0692202E-03
       2.7189308E-03
       8.1647699E-03
       3.0741602E-02
       3.5171049E-02
       3.2307208E-02
       2.8617594E-02
       3.4253016E-02
       2.2872715E-02
       2.0700288E-02
       2.8223936E-02
       6.4337988E-04
       1.8056145E-03
      -0.0000000E+00
       4.0667821E-03
       1.3739568E-02
       1.1205010E-02
       9.1990216E-03
       4.7971308E-04
       8.9683185E-03
       1.6014907E-02
       1.6684962E-02
       2.2186402E-02
       5.0252624E-02
       4.6144618E-02
       4.6307865E-02
       5.9461079E-02
       5.9362275E-02
       6.1177685E-02
       6.6907210E-03
       1.0774389E-02
       3.7570878E-03
       2.3350057E-03
       0.0000000E+00
       3.7327538E-02
       4.5692102E-02
       4.0670098E-02
       5.2843143E-02
       5.7073779E-02
       5.3676314E-02
       3.5345188E-02
       2.7359586E-02
       2.8607272E-02
       2.9284359E-02
       3.3607110E-02
       2.7126006E-02
       6.1985419E-02
       6.2059243E-02
       5.2923184E-03
       5.1262848E-03
       0.0000000E+00
       6.1336639E-03
       1.1082848E-02
       1.6301447E-02
       5.0211028E-02
       5.4031667E-02
       4.9714251E-02
       5.3399123E-02
       5.4192649E-02
       5.7066071E-02
       2.1030056E-02
       2.9224554E-02
       6.6357800E-03
       7.2390327E-03
      -0.0000000E+00
       5.7620342E-03
       2.5137208E-03
       5.9248999E-03
       5.7789568E-03
       1.6399963E-02
       1.1683752E-02
       5.2936935E-02
       4.6705249E-02
       5.0695474E-02
       2.3369742E-03
      -0.0000000E+00
       6.4564429E-04
       5.6784136E-02
       5.3179481E-02
       5.3502224E-03
       1.8119694E-03
       4.9625475E-03
       2.3859577E-02
       2.0719915E-02
       1.7332056E-02
       7.6448802E-03
       7.2927783E-03
      -0.0000000E+00
       4.2232752E-02
       4.1315700E-02
       4.9788630E-02
       2.6405546E-02
       2.4595700E-02
       3.1639906E-02
       7.9771745E-03
      -0.0000000E+00
       8.1802100E-03
       2.5376978E-02
       1.6406183E-02
       2.5109585E-02
       4.1994700E-02
       3.9810737E-02
       4.6514157E-02
       5.2902152E-02
       5.3486158E-02
       5.6646481E-02
       5.0872891E-02
       5.2073068E-02
       6.1983538E-02
       6.0616363E-02
       5.9513233E-02
       3.9617693E-02
       4.6212714E-02
       2.4687463E-02
       3.1382751E-02
       2.6680989E-02
       3.6572338E-02
       4.5788425E-02
       4.1528605E-02
       3.4022766E-02
       3.5716414E-02
       2.4916550E-02
       1.8776827E-02
       4.8768550E-02
       4.4003706E-02
       4.3691821E-02
       2.4937650E-02
       3.0461626E-02
       9.3518916E-03
       1.3623540E-02
       3.9202794E-03
       4.9874215E-03
       9.2063163E-03
       5.2914638E-03
       1.9612477E-02
       1.4731423E-02
       5.3972896E-02
       5.2912580E-02
       5.6716565E-02
       7.2319425E-03
       6.1071710E-03
       4.1879714E-04
       3.9469469E-02
       3.5791971E-02
       4.1689904E-02
       5.1785457E-03
       0.0000000E+00
       3.4670388E-03
       4.9590227E-03
       8.8910525E-03
       5.8537931E-03
       1.0986328E-02
       1.4946303E-02
       2.0888133E-02
       2.6543821E-02
       2.5998442E-02
       1.3320069E-02
       1.7889387E-02
       3.6711392E-02
       3.1593250E-02
       2.9001475E-02
       3.5203578E-02
       3.2609993E-02
       4.5514733E-02
       4.9517907E-02
       2.2788600E-02
       1.7673367E-02
       1.7535892E-02
       4.0044603E-02
       4.7274678E-02
       4.2849604E-02
       2.7451531E-02
       2.2134661E-02
       2.1493827E-02
       2.0217717E-03
       5.0753376E-03
       3.2954295E-02
       3.9120173E-02
       3.4106395E-02
       6.9749643E-03
       1.4692512E-02
       1.1200743E-02
       2.2523895E-02
       1.1882311E-02
       6.0962380E-02
       6.1857918E-02
       4.2470603E-02
       4.4689710E-02
       4.7281596E-02
       1.7877864E-02
       1.4432542E-02
       5.8889516E-03
      -0.0000000E+00
       4.5029716E-03
       5.6512263E-02
       5.8230642E-02
       3.9116392E-02
       3.0895735E-02
       3.6642396E-02
       3.2941431E-02
       2.8388521E-02
       3.9801004E-02
       3.8093362E-02
       2.9495596E-02
       4.5720264E-02
       3.8982534E-02
       4.0649736E-02
       2.0672009E-02
       2.1786503E-02
       1.6158445E-02
       7.7684196E-03
       3.5230670E-02
       2.5404585E-02
       1.9977457E-02
       2.7200787E-02
       3.4291088E-02
       2.7870496E-02
       2.8679139E-02
       2.1783362E-02
       1.9537417E-02
       0.0000000E+00
       3.6730341E-02
       3.0327272E-02
       2.8786550E-02
       4.9297534E-02
       5.3705080E-02
       2.2042320E-02
       2.4755057E-02
       3.9131620E-02
      -0.0000000E+00
       2.8839111E-03
       3.3044815E-03
       4.1980680E-02
       1.0152345E-02
       1.4300995E-02
       1.5441213E-02
       3.1220618E-02
       2.8798533E-02
       3.1696107E-03
       2.7662057E-03
      -0.0000000E+00
       3.8044304E-02
       3.2157221E-02
       2.6133875E-02
       1.9739843E-02
       1.0971552E-02
       1.5531629E-02
       3.4735724E-02
       3.8590296E-02
       6.1792309E-03
       4.4725937E-03
       1.0095937E-02
       5.3706789E-03
       0.0000000E+00
       3.1372319E-03
       2.2361475E-02
       2.8292256E-02
       3.1725011E-02
       8.3804605E-03
       7.3138564E-03
      -0.0000000E+00
       3.7054022E-02
       3.0988888E-02
       1.5207885E-02
       1.3245358E-02
       6.0819808E-02
       6.2104279E-02
       5.7495604E-02
       5.7136874E-02
       5.3452539E-02
       5.2014315E-02
       5.5709787E-02
       5.7698496E-02
       5.8297912E-02
       1.6384217E-02
       2.3431778E-03
       0.0000000E+00
       2.8839111E-03
       1.3739123E-02
       2.1582307E-02
       5.4886161E-04
       0.0000000E+00
       2.9866200E-03
       1.7034842E-02
       1.3732910E-02
       4.3748045E-03
       5.7919958E-03
       7.5285704E-03
       1.5842700E-02
       7.9334982E-03
       6.1528347E-03
      -0.0000000E+00
       2.2897496E-04
       8.8067291E-05
       3.4440235E-02
       4.1208775E-02
       4.9756869E-02
       5.3467474E-02
       3.6647636E-02
       4.1004784E-02
       2.8785246E-02
       0.0000000E+00
       7.2040140E-04
       0.0000000E+00
       8.9410875E-03
       5.9283985E-02
       5.9376105E-02
       5.8856954E-02
       4.9028581E-02
       4.4932809E-02
       4.1301982E-02
       4.4447097E-02
       4.2630732E-02
       4.8737867E-02
       3.9281789E-02
       2.4002207E-02
       0.0000000E+00
       5.5175563E-03
       0.0000000E+00
       6.8648430E-03
       1.7969037E-02
       4.5233840E-03
       3.4563432E-03
      -0.0000000E+00
       8.8929121E-03
       5.3852927E-03
      -0.0000000E+00
       1.8081256E-03
       0.0000000E+00
       1.6577662E-02
       2.2102437E-02
       0.0000000E+00
       1.5317266E-02
       2.0053182E-02
       1.5811182E-02
       3.8793330E-02
       3.9729127E-02
       4.3250817E-02
       4.4636583E-02
       4.8711280E-02
       3.5691484E-02
       4.0855490E-02
       5.5274057E-02
       5.1451276E-02
       2.2111559E-02
       1.4353381E-02
       1.5166243E-02
       1.0434011E-02
       3.4876434E-02
       3.0610678E-02
       1.3892629E-02
       9.6768070E-03
       6.3793679E-03
       1.1994462E-02
       8.4826270E-03
       1.8868260E-02
       2.3654868E-02
       2.7336036E-02
       2.9895542E-02
       3.0460574E-02
       0.0000000E+00
       4.5388169E-03
      -0.0000000E+00
       5.3371063E-03
       1.2543691E-02
       1.0989111E-02
       1.4243899E-02
       1.4416543E-02
       6.9779245E-03
       5.8964734E-02
       5.8287484E-02
       4.3455862E-02
       4.4508155E-02
       4.8591618E-02
       6.2046279E-02
       5.9389758E-02
       5.6367138E-02
       6.1144043E-02
       5.9358601E-02
       5.8565810E-02
       5.6790738E-02
       5.1765387E-02
       5.1504625E-02
       4.6351406E-02
       4.8852427E-02
       4.5277419E-02
       4.0326182E-02
       2.7488277E-02
       2.6517808E-02
       2.1124888E-02
       6.7793874E-03
       1.3820792E-02
       5.1785721E-02
       5.1967668E-02
       4.6955106E-02
       5.0521980E-02
       5.1773204E-02
       5.2934684E-02
       8.7194316E-03
       3.0625312E-02
       2.2979974E-02
       2.2885063E-02
       1.9325740E-02
       1.7139480E-02
       4.7298635E-02
       3.9801478E-02
      -0.0000000E+00
       3.9753944E-02
       2.4525606E-02
       2.5364503E-02
       3.5105881E-02
       2.8186883E-02
       4.1333307E-02
       1.0211633E-02
      -0.0000000E+00
       2.0817016E-02
       1.1412712E-02
