# vtk DataFile Version 3.0
# Solution du M1 TR
ASCII
DATASET UNSTRUCTURED_GRID
POINTS     23  float
0.0000000E+00  0.0000000E+00  0.0000000E+00
0.0000000E+00  0.1000000E+01  0.0000000E+00
0.1000000E+01  0.1000000E+01  0.0000000E+00
0.1000000E+01  0.0000000E+00  0.0000000E+00
0.5000000E+00  0.5000000E+00  0.0000000E+00
0.0000000E+00  0.5000000E+00  0.0000000E+00
0.5000000E+00  0.0000000E+00  0.0000000E+00
0.2500000E+00  0.5000000E+00  0.0000000E+00
0.2500000E+00  0.9687500E+00  0.0000000E+00
0.5000000E+00  0.1000000E+01  0.0000000E+00
0.0000000E+00  0.2500000E+00  0.0000000E+00
0.3750000E+00  0.2500000E+00  0.0000000E+00
0.2500000E+00  0.3125000E-01  0.0000000E+00
0.1250000E+00  0.7500000E+00  0.0000000E+00
0.3911638E+00  0.7429957E+00  0.0000000E+00
0.1000000E+01  0.5000000E+00  0.0000000E+00
0.7500000E+00  0.0000000E+00  0.0000000E+00
0.6562500E+00  0.2656250E+00  0.0000000E+00
0.7500000E+00  0.4973958E+00  0.0000000E+00
0.8723823E+00  0.7500000E+00  0.0000000E+00
0.7500000E+00  0.9700452E+00  0.0000000E+00
0.6322989E+00  0.7103680E+00  0.0000000E+00
0.9186790E+00  0.2500000E+00  0.0000000E+00
CELLS      34    136
3      10       7       5
3       5       7      13
3       9       1       8
3      17       6      16
3       1       5      13
3       6      17      11
3       7      10      11
3      14       7       4
3      12      10       0
3       1      13       8
3      14      13       7
3       4      21      14
3      14       8      13
3      11      10      12
3       4       7      11
3       0       6      12
3       6      11      12
3      17       4      11
3      21       4      18
3       9       8      14
3      18      15      19
3      22      16       3
3      16      22      17
3      18      17      22
3      19      15       2
3       4      17      18
3       2      20      19
3       9      21      20
3       2       9      20
3      21       9      14
3      18      19      21
3      20      21      19
3       3      15      22
3      18      22      15
CELL_TYPES      34
5
5
5
5
5
5
5
5
5
5
5
5
5
5
5
5
5
5
5
5
5
5
5
5
5
5
5
5
5
5
5
5
5
5
POINT_DATA      23
SCALARS hauteur float
LOOKUP_TABLE DEFAULT
       0.0000000E+00
       0.0000000E+00
       0.0000000E+00
       0.0000000E+00
       6.4896210E-02
       0.0000000E+00
       0.0000000E+00
       4.8431692E-02
       5.4596535E-03
       0.0000000E+00
       0.0000000E+00
       4.5955979E-02
       5.7322051E-03
       2.0640267E-02
       4.7078594E-02
       0.0000000E+00
       0.0000000E+00
       4.5748842E-02
       4.8701784E-02
       2.1323429E-02
       5.1567971E-03
       5.0117585E-02
       1.4437044E-02
