# vtk DataFile Version 3.0
# Solution du M1 TR
ASCII
DATASET UNSTRUCTURED_GRID
POINTS   1616  float
0.0000000E+00  0.0000000E+00  0.0000000E+00
0.0000000E+00  0.1000000E+01  0.0000000E+00
0.1000000E+01  0.1000000E+01  0.0000000E+00
0.1000000E+01  0.0000000E+00  0.0000000E+00
0.5000000E+00  0.5000000E+00  0.0000000E+00
0.0000000E+00  0.5000000E+00  0.0000000E+00
0.5000000E+00  0.0000000E+00  0.0000000E+00
0.2500000E+00  0.5000000E+00  0.0000000E+00
0.2500000E+00  0.9687500E+00  0.0000000E+00
0.5000000E+00  0.1000000E+01  0.0000000E+00
0.0000000E+00  0.2500000E+00  0.0000000E+00
0.3750000E+00  0.2500000E+00  0.0000000E+00
0.2500000E+00  0.3125000E-01  0.0000000E+00
0.1250000E+00  0.7500000E+00  0.0000000E+00
0.3911638E+00  0.7429957E+00  0.0000000E+00
0.1000000E+01  0.5000000E+00  0.0000000E+00
0.7500000E+00  0.0000000E+00  0.0000000E+00
0.6562500E+00  0.2656250E+00  0.0000000E+00
0.7500000E+00  0.4973958E+00  0.0000000E+00
0.8723823E+00  0.7500000E+00  0.0000000E+00
0.7500000E+00  0.9700452E+00  0.0000000E+00
0.6322989E+00  0.7103680E+00  0.0000000E+00
0.9186790E+00  0.2500000E+00  0.0000000E+00
0.5008484E+00  0.6462514E+00  0.0000000E+00
0.6257190E+00  0.5677212E+00  0.0000000E+00
0.5266793E+00  0.8371547E+00  0.0000000E+00
0.7663311E+00  0.6454318E+00  0.0000000E+00
0.7376584E+00  0.8191260E+00  0.0000000E+00
0.1250000E+00  0.3750000E+00  0.0000000E+00
0.1760417E+00  0.1989583E+00  0.0000000E+00
0.1250000E+00  0.5937500E+00  0.0000000E+00
0.6250000E+00  0.1052390E+00  0.0000000E+00
0.0000000E+00  0.7500000E+00  0.0000000E+00
0.1145833E+00  0.9010417E+00  0.0000000E+00
0.2599627E+00  0.8179678E+00  0.0000000E+00
0.3750000E+00  0.4062500E+00  0.0000000E+00
0.3854167E+00  0.9895833E-01  0.0000000E+00
0.8750000E+00  0.9756571E-01  0.0000000E+00
0.7926728E+00  0.3452888E+00  0.0000000E+00
0.1000000E+01  0.7500000E+00  0.0000000E+00
0.6241122E+00  0.4134706E+00  0.0000000E+00
0.8850551E+00  0.9011034E+00  0.0000000E+00
0.3750000E+00  0.5738533E+00  0.0000000E+00
0.9361911E+00  0.6250000E+00  0.0000000E+00
0.8748313E+00  0.5148913E+00  0.0000000E+00
0.1406250E+00  0.4843750E+00  0.0000000E+00
0.7508108E+00  0.1278183E+00  0.0000000E+00
0.3906250E-02  0.6250000E+00  0.0000000E+00
0.5030887E+00  0.1829537E+00  0.0000000E+00
0.2578125E+00  0.3281250E+00  0.0000000E+00
0.3882478E+00  0.8980833E+00  0.0000000E+00
0.1000000E+01  0.8750000E+00  0.0000000E+00
0.6191150E+00  0.9359067E+00  0.0000000E+00
0.6312034E+00  0.8168420E+00  0.0000000E+00
0.2783119E+00  0.1438971E+00  0.0000000E+00
0.6250000E+00  0.0000000E+00  0.0000000E+00
0.0000000E+00  0.8750000E+00  0.0000000E+00
0.8750000E+00  0.0000000E+00  0.0000000E+00
0.9230908E+00  0.3867911E+00  0.0000000E+00
0.8046824E+00  0.2302127E+00  0.0000000E+00
0.5303440E+00  0.3156721E+00  0.0000000E+00
0.4762698E+00  0.4014320E+00  0.0000000E+00
0.1178133E+00  0.7311825E-01  0.0000000E+00
0.7237960E-01  0.1705329E+00  0.0000000E+00
0.1020690E+00  0.2729310E+00  0.0000000E+00
0.0000000E+00  0.3750000E+00  0.0000000E+00
0.1000000E+01  0.2500000E+00  0.0000000E+00
0.9969894E+00  0.1250000E+00  0.0000000E+00
0.2566406E+00  0.6672397E+00  0.0000000E+00
0.1861416E+00  0.2830309E+00  0.0000000E+00
0.2658988E+00  0.2357703E+00  0.0000000E+00
0.3956900E-01  0.3125000E+00  0.0000000E+00
0.9375000E+00  0.4878285E-01  0.0000000E+00
0.8125000E+00  0.4878285E-01  0.0000000E+00
0.5478384E+00  0.4363424E+00  0.0000000E+00
0.4380560E+00  0.3174094E+00  0.0000000E+00
0.4519794E+00  0.2411886E+00  0.0000000E+00
0.1875000E+00  0.5468750E+00  0.0000000E+00
0.6445312E-01  0.4394531E+00  0.0000000E+00
0.2002065E+00  0.1036461E+00  0.0000000E+00
0.8750000E+00  0.1000000E+01  0.0000000E+00
0.7500000E+00  0.1000000E+01  0.0000000E+00
0.8221702E+00  0.9446692E+00  0.0000000E+00
0.9375000E+00  0.9563951E+00  0.0000000E+00
0.2599106E-01  0.8959510E-01  0.0000000E+00
0.6875000E+00  0.5261949E-01  0.0000000E+00
0.7224151E-01  0.8222415E+00  0.0000000E+00
0.8524368E+00  0.2933612E+00  0.0000000E+00
0.7211336E+00  0.2088007E+00  0.0000000E+00
0.7340614E+00  0.2890171E+00  0.0000000E+00
0.6429465E+00  0.1849796E+00  0.0000000E+00
0.7069791E+00  0.3758855E+00  0.0000000E+00
0.7459677E-01  0.5307460E+00  0.0000000E+00
0.8719553E+00  0.1809132E+00  0.0000000E+00
0.9274068E+00  0.8214683E+00  0.0000000E+00
0.5877997E+00  0.8725813E+00  0.0000000E+00
0.6830520E+00  0.8822521E+00  0.0000000E+00
0.3750000E+00  0.0000000E+00  0.0000000E+00
0.2500000E+00  0.0000000E+00  0.0000000E+00
0.4375000E+00  0.4344846E-01  0.0000000E+00
0.3224826E+00  0.5555556E-01  0.0000000E+00
0.3533462E+00  0.1726266E+00  0.0000000E+00
0.5625000E+00  0.5261949E-01  0.0000000E+00
0.1250000E+00  0.1000000E+01  0.0000000E+00
0.2500000E+00  0.1000000E+01  0.0000000E+00
0.6250000E-01  0.9565515E+00  0.0000000E+00
0.1775174E+00  0.9444444E+00  0.0000000E+00
0.2842371E+00  0.4154412E+00  0.0000000E+00
0.2055377E+00  0.3916016E+00  0.0000000E+00
0.4590292E+00  0.5733658E+00  0.0000000E+00
0.5424884E+00  0.5739198E+00  0.0000000E+00
0.5827105E+00  0.6452264E+00  0.0000000E+00
0.4098050E+00  0.4900516E+00  0.0000000E+00
0.3306035E+00  0.5062857E+00  0.0000000E+00
0.2866293E+00  0.5835493E+00  0.0000000E+00
0.7126852E+00  0.5764312E+00  0.0000000E+00
0.6867445E+00  0.6519537E+00  0.0000000E+00
0.7331323E+00  0.7291651E+00  0.0000000E+00
0.8071726E+00  0.7100728E+00  0.0000000E+00
0.1000000E+01  0.6250000E+00  0.0000000E+00
0.6638849E+00  0.4901900E+00  0.0000000E+00
0.4903282E+00  0.7448741E+00  0.0000000E+00
0.5699048E+00  0.7629687E+00  0.0000000E+00
0.1000000E+01  0.3750000E+00  0.0000000E+00
0.8381824E+00  0.4279440E+00  0.0000000E+00
0.7637566E+00  0.4241543E+00  0.0000000E+00
0.8473113E+00  0.6023785E+00  0.0000000E+00
0.8765666E+00  0.6733497E+00  0.0000000E+00
0.6250000E-01  0.6893921E+00  0.0000000E+00
0.9321698E+00  0.4633520E+00  0.0000000E+00
0.4116682E+00  0.6556927E+00  0.0000000E+00
0.3358283E+00  0.6839399E+00  0.0000000E+00
0.9424053E+00  0.5493859E+00  0.0000000E+00
0.6101384E+00  0.3330173E+00  0.0000000E+00
0.3424479E+00  0.3281250E+00  0.0000000E+00
0.6250000E+00  0.1000000E+01  0.0000000E+00
0.5722362E+00  0.2379112E+00  0.0000000E+00
0.1250000E+00  0.0000000E+00  0.0000000E+00
0.4961093E+00  0.1010641E+00  0.0000000E+00
0.2128157E+00  0.7436063E+00  0.0000000E+00
0.1634524E+00  0.6718750E+00  0.0000000E+00
0.4371347E+00  0.8214313E+00  0.0000000E+00
0.4772928E+00  0.9126717E+00  0.0000000E+00
0.8282243E+00  0.8297866E+00  0.0000000E+00
0.3001743E+00  0.8963449E+00  0.0000000E+00
0.1698254E+00  0.8289714E+00  0.0000000E+00
0.3480054E+00  0.8197554E+00  0.0000000E+00
0.3750000E+00  0.1000000E+01  0.0000000E+00
0.1762151E+00  0.4194615E-01  0.0000000E+00
0.9680956E+00  0.6875000E+00  0.0000000E+00
0.5469063E+00  0.9322093E+00  0.0000000E+00
0.6250000E-01  0.3707934E+00  0.0000000E+00
0.6820887E+00  0.9624413E+00  0.0000000E+00
0.6283049E-01  0.3080178E-01  0.0000000E+00
0.9361911E+00  0.7431794E+00  0.0000000E+00
0.5218015E+00  0.8878721E+00  0.0000000E+00
0.9679019E-01  0.3277273E+00  0.0000000E+00
0.1328125E+00  0.5390625E+00  0.0000000E+00
0.7504054E+00  0.6390916E-01  0.0000000E+00
0.1808216E-01  0.5619960E+00  0.0000000E+00
0.6339867E-01  0.6052890E+00  0.0000000E+00
0.4407875E+00  0.9872212E-01  0.0000000E+00
0.3001302E+00  0.3629749E+00  0.0000000E+00
0.4168318E+00  0.5420986E+00  0.0000000E+00
0.2903688E-02  0.9375000E+00  0.0000000E+00
0.2839818E+00  0.7336885E+00  0.0000000E+00
0.2128527E+00  0.2371791E+00  0.0000000E+00
0.4836318E+00  0.2863527E+00  0.0000000E+00
0.6721714E+00  0.5424286E+00  0.0000000E+00
0.9359947E+00  0.1112829E+00  0.0000000E+00
0.9517510E+00  0.1836890E+00  0.0000000E+00
0.6340995E+00  0.5261949E-01  0.0000000E+00
0.7019908E+00  0.4392806E+00  0.0000000E+00
0.9971438E+00  0.9375000E+00  0.0000000E+00
0.6661390E+00  0.6026597E+00  0.0000000E+00
0.9899528E+00  0.4375000E+00  0.0000000E+00
0.8913051E+00  0.4293793E+00  0.0000000E+00
0.6237410E+00  0.7635226E+00  0.0000000E+00
0.5733745E+00  0.7037785E+00  0.0000000E+00
0.5793104E+00  0.5064590E+00  0.0000000E+00
0.5229786E+00  0.7853125E+00  0.0000000E+00
0.3034500E+00  0.8451604E+00  0.0000000E+00
0.7822547E+00  0.5776973E+00  0.0000000E+00
0.8303615E+00  0.5489748E+00  0.0000000E+00
0.7835876E+00  0.7717209E+00  0.0000000E+00
0.8327043E+00  0.7801531E+00  0.0000000E+00
0.6854136E+00  0.7052936E+00  0.0000000E+00
0.1401991E+00  0.1391516E+00  0.0000000E+00
0.3283395E+00  0.5561428E+00  0.0000000E+00
0.0000000E+00  0.6250000E+00  0.0000000E+00
0.6875000E+00  0.0000000E+00  0.0000000E+00
0.1710391E+00  0.7760750E+00  0.0000000E+00
0.2251053E+00  0.8853554E+00  0.0000000E+00
0.2111577E+00  0.6918965E+00  0.0000000E+00
0.1739414E+00  0.3412283E+00  0.0000000E+00
0.5600424E+00  0.1189662E+00  0.0000000E+00
0.3167099E+00  0.2715566E+00  0.0000000E+00
0.3179855E+00  0.2157803E+00  0.0000000E+00
0.8613497E+00  0.2369903E+00  0.0000000E+00
0.8872119E+00  0.4878285E-01  0.0000000E+00
0.7922406E+00  0.2870790E+00  0.0000000E+00
0.6821759E+00  0.3204970E+00  0.0000000E+00
0.4171914E+00  0.6040837E+00  0.0000000E+00
0.4882813E-01  0.4873992E+00  0.0000000E+00
0.1564016E+00  0.4263176E+00  0.0000000E+00
0.2116657E+00  0.4524059E+00  0.0000000E+00
0.8074225E+00  0.1634024E+00  0.0000000E+00
0.8041188E+00  0.1058338E+00  0.0000000E+00
0.6952898E+00  0.1534009E+00  0.0000000E+00
0.1077902E+00  0.6507460E+00  0.0000000E+00
0.5775078E+00  0.2909159E+00  0.0000000E+00
0.6842144E+00  0.8280762E+00  0.0000000E+00
0.2569848E+00  0.8937590E-01  0.0000000E+00
0.8125000E+00  0.0000000E+00  0.0000000E+00
0.8592925E+00  0.3616068E+00  0.0000000E+00
0.9593395E+00  0.3125000E+00  0.0000000E+00
0.9023280E+00  0.3228164E+00  0.0000000E+00
0.7565694E+00  0.2442398E+00  0.0000000E+00
0.4976452E+00  0.4484264E+00  0.0000000E+00
0.3936018E+00  0.3526551E+00  0.0000000E+00
0.5596593E+00  0.3730253E+00  0.0000000E+00
0.1480720E+00  0.2449614E+00  0.0000000E+00
0.9984947E+00  0.6250000E-01  0.0000000E+00
0.9375000E+00  0.0000000E+00  0.0000000E+00
0.4081568E+00  0.1990040E+00  0.0000000E+00
[...]
POINT_DATA    1616
SCALARS hauteur float
LOOKUP_TABLE DEFAULT
       0.0000000E+00
      -0.0000000E+00
       0.0000000E+00
      -0.0000000E+00
       6.2500000E-02
       0.0000000E+00
       0.0000000E+00
       4.6875000E-02
       5.6762695E-03
      -0.0000000E+00
       0.0000000E+00
       4.3945312E-02
       5.6762695E-03
       2.0507812E-02
       4.5476373E-02
      -0.0000000E+00
       0.0000000E+00
       4.4004679E-02
       4.6873728E-02
       2.0874646E-02
       5.4482902E-03
       4.7835161E-02
       1.4007734E-02
       5.7152470E-02
       5.7474630E-02
       3.3984639E-02
       4.0979576E-02
       2.8671428E-02
       2.5634766E-02
       2.3117345E-02
       2.6382446E-02
       2.2069624E-02
       0.0000000E+00
       9.0462043E-03
       2.8645021E-02
       5.6533813E-02
       2.1120710E-02
       9.6301012E-03
       3.7152024E-02
      -0.0000000E+00
       5.6892541E-02
       9.0660002E-03
       5.7315397E-02
       1.4000928E-02
       2.7351089E-02
       3.0182898E-02
       2.0857383E-02
       9.1195107E-04
       3.7368981E-02
       4.2183772E-02
       2.1739347E-02
      -0.0000000E+00
       1.4145232E-02
       3.4827337E-02
       2.4743396E-02
       0.0000000E+00
       0.0000000E+00
       0.0000000E+00
       1.6838674E-02
       2.7852605E-02
       5.3806901E-02
       5.9935776E-02
       7.0437691E-03
       9.4971595E-03
       1.8187178E-02
       0.0000000E+00
      -0.0000000E+00
       3.2828889E-04
       4.2358205E-02
       3.0741602E-02
       3.5171049E-02
       8.1647699E-03
       2.7189308E-03
       7.0692202E-03
       6.0924072E-02
       5.3333827E-02
       4.5332130E-02
       3.7751198E-02
       1.4853679E-02
       1.4876083E-02
      -0.0000000E+00
      -0.0000000E+00
       7.6421065E-03
       2.4435636E-03
       2.0649324E-03
       1.0710106E-02
       9.7960617E-03
       2.6075963E-02
       3.3222306E-02
       4.0114048E-02
       3.4609913E-02
       4.8598739E-02
       1.7192767E-02
       1.6544588E-02
       9.8735293E-03
       2.6938701E-02
       2.2489907E-02
       0.0000000E+00
       0.0000000E+00
       1.0227827E-02
       1.1463855E-02
       3.2634842E-02
       1.2267940E-02
      -0.0000000E+00
      -0.0000000E+00
       2.4351970E-03
       7.6607534E-03
       4.9406915E-02
       3.8904270E-02
       6.0743748E-02
       6.0692513E-02
       5.5661349E-02
       6.0442279E-02
       5.5317460E-02
       4.9690911E-02
       4.9995075E-02
       4.8814370E-02
       3.8637486E-02
       3.2042547E-02
      -0.0000000E+00
       5.5763957E-02
       4.7491394E-02
       4.4328128E-02
      -0.0000000E+00
       3.3203957E-02
       4.4070168E-02
       3.0987698E-02
       2.3798053E-02
       1.2546717E-02
       1.5722385E-02
       5.4678456E-02
       4.8215343E-02
       1.3437010E-02
       5.2834815E-02
       4.9642368E-02
      -0.0000000E+00
       4.4381286E-02
       0.0000000E+00
       2.2711167E-02
       3.1939675E-02
       3.0144620E-02
       3.6090790E-02
       1.9884414E-02
       2.0094156E-02
       1.9517723E-02
       1.9988507E-02
       3.3525591E-02
      -0.0000000E+00
       5.8336326E-03
       6.6357800E-03
       1.5659749E-02
       1.3670252E-02
       7.8384711E-03
       1.7578308E-03
       1.1401685E-02
       2.4841497E-02
       1.9260966E-02
       2.8617594E-02
       1.1205010E-02
       4.3705561E-03
       1.4186555E-02
       2.1932055E-02
       4.8569103E-02
       6.0339949E-02
       1.6964394E-04
       3.9729786E-02
       3.0313360E-02
       5.1033952E-02
       5.4692570E-02
       5.9248999E-03
       6.8857320E-03
       1.1566220E-02
       5.1528645E-02
       1.6687791E-04
       5.3255602E-02
       2.4477145E-03
       2.3736919E-02
       4.2374319E-02
       5.0996191E-02
       6.0917299E-02
       4.2060175E-02
       2.7660543E-02
       4.1554800E-02
       3.4877458E-02
       2.9874188E-02
       2.3893275E-02
       4.4817969E-02
       1.4439699E-02
       5.4438046E-02
       0.0000000E+00
       0.0000000E+00
       2.4639714E-02
       1.7705155E-02
       3.5508707E-02
       3.2299354E-02
       2.5825452E-02
       4.2807804E-02
       3.6698682E-02
       2.1595385E-02
       4.6434163E-03
       3.3686865E-02
       4.7217019E-02
       5.8151617E-02
       1.1603610E-02
       3.2268720E-02
       4.1337855E-02
       2.1255998E-02
       1.4905816E-02
       2.7514297E-02
       2.1857429E-02
       5.0331723E-02
       3.0760315E-02
       1.5540488E-02
       0.0000000E+00
       2.7911487E-02
       8.3804605E-03
       1.9266225E-02
       3.3995728E-02
       6.1833669E-02
       5.4487999E-02
       5.7636934E-02
       2.3331499E-02
       8.8067291E-05
       0.0000000E+00
       3.8505767E-02
       4.5251042E-02
       3.8760676E-02
       0.0000000E+00
       2.3074980E-02
       1.7258648E-02
      -0.0000000E+00
       4.8292536E-03
       4.2888696E-02
       5.2640524E-02
       1.2096580E-02
       2.2265796E-02
       0.0000000E+00
      -0.0000000E+00
       4.7948794E-03
       7.8686401E-03
       1.1605042E-02
       5.7414019E-02
       4.4382610E-02
       6.0101100E-02
       6.1908342E-02
       5.8397631E-02
       5.3629518E-02
       5.1581074E-02
       4.3050514E-02
       5.2244794E-02
       3.2990256E-02
       3.6529429E-02
       2.3950386E-02
       1.0929814E-02
       5.0094418E-02
      -0.0000000E+00
       4.1656425E-02
       2.7924800E-02
       3.0952536E-02
       1.4158071E-02
       3.8939794E-02
       1.6809340E-03
       4.0406756E-02
       4.5395896E-02
       5.9770007E-02
       6.1529556E-06
       1.4238424E-02
       3.5421199E-02
       2.0377817E-02
       2.2369654E-02
       1.4410636E-02
       4.8890479E-02
       7.2232599E-03
       1.5000695E-03
       1.3712505E-02
       5.6584837E-02
       9.6911944E-03
       4.7971308E-04
       0.0000000E+00
       1.6698560E-03
       1.4696015E-03
       1.6971705E-02
       6.0096200E-02
       5.2969194E-02
       4.4056850E-02
       7.2457287E-03
       5.2619829E-02
       3.7929680E-02
       3.8586450E-02
       3.2778884E-02
      -0.0000000E+00
      -0.0000000E+00
       0.0000000E+00
       0.0000000E+00
       4.2584252E-03
       9.0666032E-03
       1.7613246E-03
       4.5605165E-03
       3.4646909E-04
       7.5067191E-03
       1.1178525E-02
       9.4694769E-03
       1.6647327E-02
       2.3675019E-03
       3.2600869E-03
       7.3747295E-03
       4.7009675E-03
       9.6009038E-03
       7.2736066E-03
       4.6322371E-03
       1.2417246E-02
       3.2630442E-03
       4.7181891E-03
       1.8306036E-03
       5.3287861E-03
       1.0339297E-02
       3.2218882E-03
       4.4610383E-03
       1.2897055E-02
       1.3200646E-02
       1.0201899E-02
       1.1876473E-02
       1.7712088E-02
       1.4120700E-02
       2.0216360E-02
       1.0463677E-02
       1.4471584E-02
       1.8606935E-02
       2.1616679E-02
       2.6901924E-02
       1.8235287E-02
       6.2848545E-03
       1.2694510E-02
       2.3132175E-02
       2.4437455E-02
       2.6494442E-02
       1.7436549E-02
       2.8784482E-02
       3.1162679E-02
       2.2277259E-02
       7.7934122E-03
       5.9847980E-02
       3.0401372E-02
       6.1952803E-02
       6.0107819E-02
       4.7368756E-02
       4.8215529E-02
       5.7620461E-02
       5.7972988E-02
       5.8839234E-02
       3.1993363E-02
       1.5097202E-03
       3.6112639E-02
       3.8499136E-02
       1.7490135E-02
       1.2508847E-02
       8.4993430E-03
       4.5879814E-03
       1.1259882E-02
       5.5743829E-02
       3.7593910E-02
       4.2200498E-02
       4.5711168E-02
       4.4129429E-02
       4.1429604E-02
       4.5626590E-02
       3.5176912E-02
       4.4296101E-03
       3.7618399E-02
       3.1372319E-03
       2.8075901E-02
       6.0505583E-02
       5.8760689E-02
       5.9634025E-02
       5.8290184E-02
       5.5921974E-02
       5.2841129E-02
       5.5217134E-02
       7.2040140E-04
       5.8856981E-02
       5.7234071E-02
       5.7236355E-02
       5.4377683E-02
       5.4530464E-02
       5.1221708E-02
       4.7262638E-02
       4.1970409E-02
       3.5713643E-02
       4.0073987E-02
       2.1451976E-02
       2.3173423E-02
       1.9279681E-02
       2.7123968E-02
       2.1456640E-02
       1.6756305E-02
       1.4468270E-02
       1.3141239E-02
       5.6292261E-03
       6.0187278E-03
       1.7825150E-02
       4.9217528E-03
       1.9376958E-02
       3.8788289E-02
       5.7518596E-02
       5.8410532E-02
       5.2660839E-02
       5.1114745E-02
       4.2328402E-02
       3.7610061E-02
       4.0400817E-02
       3.3403082E-02
       2.8421660E-02
       2.6280790E-02
       2.9788490E-02
       2.0897346E-02
       1.5584856E-02
       1.6803545E-02
       1.3300253E-02
       6.6771053E-03
       1.4994625E-02
       5.8541421E-03
      -0.0000000E+00
       3.1430003E-03
       1.4913789E-03
       6.1084378E-03
       5.4677855E-03
       1.7706574E-02
       1.7670447E-02
       8.8950245E-03
       3.0373229E-03
       4.9925718E-02
       5.2204460E-02
       4.9018709E-02
       4.6523357E-02
       3.8195465E-02
       4.1292376E-02
       3.8618084E-02
       3.3249499E-02
       3.9464783E-02
       7.6268440E-03
       1.5966832E-02
       4.1791436E-02
       3.8031360E-02
       4.0366791E-02
       2.2908668E-02
       2.9627042E-02
       1.9907619E-02
       2.3723165E-02
       3.5495930E-02
       4.7905568E-02
       1.5381452E-02
       6.1863162E-02
       6.1405872E-02
       2.5170237E-02
       2.9080449E-02
       3.4342702E-02
       3.2397170E-02
       3.8397461E-02
       4.5838717E-02
       2.4590425E-02
       3.6046875E-02
       4.1074519E-02
       4.4597512E-02
       4.7308952E-02
       7.7939379E-03
       1.2085417E-02
       1.4442149E-02
       1.0245417E-02
       1.8613670E-02
       2.3321688E-02
       7.9508707E-03
       4.0777349E-03
       1.2054455E-02
       1.2791979E-02
       1.0740177E-02
       1.6459119E-02
      -0.0000000E+00
      -0.0000000E+00
       7.4761210E-03
       1.7629975E-03
      -0.0000000E+00
       1.2838507E-02
       4.5415636E-03
       1.9519516E-02
       4.4929808E-03
       4.0626926E-03
       2.2754966E-02
       2.7927781E-02
       8.7884252E-03
       4.0850067E-03
       1.1354954E-02
       1.3952227E-02
       1.7804678E-02
       4.4080922E-02
       4.3313338E-02
       4.4349867E-02
       4.6887212E-02
       4.9512490E-02
       2.7488885E-02
       4.6327965E-02
       4.0667821E-03
       4.5274060E-02
       6.1119970E-02
       5.5788387E-02
       5.3087368E-02
       4.5987851E-02
       4.9840206E-02
       4.4444106E-02
       4.6210199E-02
       4.9669753E-02
       4.3805591E-02
       4.2409998E-02
       4.3612980E-02
       3.8063869E-02
       3.3199124E-02
       3.2393415E-02
       3.9730708E-02
       4.8510237E-02
       2.8918756E-02
       5.2440476E-02
       5.4657595E-02
       2.2541444E-02
       6.1135560E-02
       6.1473913E-02
       6.1587290E-02
      -0.0000000E+00
       1.4115284E-02
       1.4789110E-02
       2.3250250E-02
       6.8131697E-03
       1.0230955E-02
       1.4948913E-02
       1.2887044E-03
       2.3054076E-02
       2.4609625E-02
       3.0849487E-02
       3.3774756E-02
       2.6959357E-02
       3.3587044E-02
       3.8549172E-02
       3.6094303E-02
       2.9395288E-02
       4.1102595E-02
       1.7888382E-02
       2.5400776E-02
       2.8305455E-02
       3.2618824E-02
       2.6526146E-02
       3.6209211E-02
       2.9933418E-02
       6.1144391E-02
       3.5759038E-02
       3.1174035E-02
       3.0142964E-02
       3.1958380E-02
       2.7197143E-02
       2.3485497E-02
       1.9084540E-02
       5.9823914E-02
       5.8950015E-02
       4.5069101E-02
       3.2893904E-02
       2.8222061E-02
       3.1392123E-02
       3.0612935E-02
       2.4021205E-02
       2.2011918E-02
       1.6783940E-02
       2.4473471E-02
       2.6426821E-02
       2.3284559E-02
       3.4766408E-02
       5.6930531E-02
       5.9209520E-02
       5.8693684E-02
       5.5809075E-02
       5.9307036E-02
       5.5348296E-02
       5.3793851E-02
       5.2770659E-02
       5.0601485E-02
       5.3870354E-02
       5.1714434E-02
       4.7733054E-02
       1.9352505E-02
       2.6277933E-02
       2.4868950E-02
       1.8117223E-02
       1.1304285E-02
       7.1703051E-03
       8.6301726E-03
       1.1034461E-02
       1.8965644E-03
       1.9978802E-02
       3.6749728E-02
       3.7789315E-02
       1.6214465E-02
       1.5810032E-02
       1.2670935E-02
       7.4016354E-03
       3.6004820E-02
       2.9876096E-02
       2.8319034E-02
       1.6460231E-02
       6.2201073E-02
       3.4227748E-02
       3.1227061E-02
       2.9745153E-02
       5.9555569E-03
       5.4940529E-02
       4.7901385E-02
       5.1941097E-02
       3.8398986E-02
       5.0547825E-02
       2.7047894E-02
       2.3793373E-02
       1.6752738E-02
       1.8633735E-02
       2.5342733E-02
       2.9669711E-02
       2.4861471E-02
       3.4047693E-02
       3.4394280E-02
       6.2213467E-02
       3.1733311E-03
       2.6667730E-02
       2.5230121E-02
       2.7139574E-02
       2.5507313E-02
       1.9717680E-02
       2.6567518E-02
       2.9965574E-02
       3.6177386E-02
       4.1378019E-02
       2.5525765E-02
       7.1146387E-03
       1.3459638E-03
       1.8494710E-02
       5.6621319E-03
       1.7159557E-02
       1.0714269E-02
       6.1964541E-02
       3.0466770E-02
       3.9584721E-02
       3.4253016E-02
       4.5696515E-02
       4.6259201E-02
       4.8211160E-02
       4.4544458E-02
       4.8634489E-02
       5.1455619E-02
       4.0684685E-02
       5.0199056E-02
       5.1598883E-02
       1.6594688E-03
       2.7550900E-03
       2.7824554E-02
       4.7873604E-03
       5.5123812E-02
       5.4107121E-02
       5.4683585E-02
       5.2906586E-02
       5.1459885E-02
       5.0470426E-02
       5.4615892E-02
       5.6490101E-02
       4.8668537E-02
       7.3605672E-03
       1.3296642E-02
       2.0653263E-02
       3.2610176E-02
       5.0016799E-02
       4.6968119E-02
       5.1178436E-02
       3.8555582E-02
       2.9115246E-02
       2.5587350E-02
       2.6627009E-02
       2.0767983E-02
       2.3019092E-02
       4.0048260E-02
       3.5860115E-02
       3.8292969E-02
       4.3187893E-02
       3.4574113E-02
       7.3802871E-03
       9.2602230E-03
       1.3014701E-02
       7.3094919E-03
       5.3933151E-02
       5.8041166E-02
       5.8311268E-02
       5.5735288E-02
       5.7995816E-02
       4.0218266E-02
       3.3215661E-02
       4.0127209E-02
       3.0404200E-02
       3.3929884E-02
       4.0031511E-02
       2.7538872E-02
       2.5866573E-02
       4.2034179E-02
       4.1323446E-02
       6.9667153E-03
       3.9187626E-03
       1.6724060E-02
       2.1941364E-02
       1.0848402E-02
       4.5495042E-03
       2.9699584E-03
       4.6556506E-03
       8.3022637E-03
      -0.0000000E+00
       6.4337988E-04
       1.7472985E-03
       5.0747763E-03
       3.7107510E-02
       3.6394971E-02
       3.7354354E-02
       3.5880523E-02
       3.6115496E-02
       2.0856452E-02
       2.0768540E-02
       2.6233718E-02
       1.0997192E-02
       7.3254415E-03
       5.0630732E-03
       4.8750890E-02
       5.0426529E-02
       4.9941738E-02
       4.6661938E-02
       9.4286411E-03
       4.6991042E-03
       5.4381992E-03
      -0.0000000E+00
       1.7487793E-03
       6.4564429E-04
       3.9647663E-03
       4.2249887E-04
       1.9749999E-02
       1.3335134E-02
       6.6146631E-03
       2.2111559E-02
       2.0363714E-02
       1.4208115E-02
       1.6371575E-02
       2.2992976E-02
       1.9015240E-02
       2.4208248E-03
       4.3519929E-02
       3.9195109E-02
       4.9477993E-02
       3.7792854E-02
       1.4027937E-02
       1.8914288E-02
       6.8809279E-03
       8.5110753E-03
       5.5019265E-03
       5.4350998E-02
       4.8257428E-03
       1.3023614E-03
       5.6310039E-03
       5.9816796E-03
       1.1233610E-02
       1.5468655E-02
       1.5739216E-02
       4.7124253E-02
       5.0489325E-02
       5.9447132E-02
       5.1304413E-02
       2.6179327E-03
       1.8501522E-02
       4.7016404E-02
       5.6835582E-02
       1.6699488E-02
       2.0664048E-02
       1.9012465E-02
       3.3589146E-02
       5.1592983E-02
       5.3676003E-02
       3.0216714E-02
       4.2376692E-02
       4.4722398E-02
       1.4782990E-02
       1.2143960E-02
       2.6848915E-03
       7.1494253E-04
       5.9480771E-03
       1.1631093E-02
       5.6808729E-03
       0.0000000E+00
       4.4463740E-04
       7.9698175E-03
       7.9076377E-03
       6.9651622E-04
       0.0000000E+00
       1.7664829E-03
       0.0000000E+00
       4.8975483E-04
       0.0000000E+00
       1.8122484E-02
       4.6404897E-02
       2.9970884E-02
       5.5524456E-02
       3.2189713E-03
       5.5822551E-02
       5.6477662E-02
       3.5131491E-02
       2.4636505E-02
       2.1277866E-02
       2.6556859E-02
       5.2529695E-02
       5.2220850E-02
       2.3686243E-02
       4.0416074E-02
       3.7743985E-02
       3.8218639E-02
       3.7913101E-02
       3.5281465E-02
       3.2190532E-02
       2.1759859E-02
       1.2040419E-02
       1.0553118E-02
       5.2330305E-02
       3.2639323E-02
      -0.0000000E+00
       2.0953003E-02
       1.8433324E-02
       1.2933432E-02
       4.7323460E-02
       4.5865002E-02
       4.2498227E-02
       4.0165468E-02
       3.5894663E-02
       6.0820971E-02
       5.9762619E-02
       5.2844432E-02
       4.3148583E-02
       4.8143076E-02
       5.0796277E-02
       3.9972513E-02
       5.0358436E-02
       3.1717738E-02
       3.5859950E-02
       3.2588499E-02
       3.9153944E-02
       1.2028112E-02
       3.0450658E-02
       5.2760011E-02
       1.5342268E-02
       2.0612971E-02
       1.2507459E-02
       4.6318916E-02
       4.1652433E-02
       1.5236149E-02
       8.9115404E-03
       5.4655326E-02
       4.8693011E-02
       2.9037996E-02
       3.1361207E-02
       3.7527336E-02
       4.8281806E-02
       3.6747525E-02
       5.8827306E-02
       5.9981083E-02
       5.5153172E-02
       3.2334836E-02
       1.4630266E-02
       5.8174192E-02
       6.1703772E-02
       6.1068728E-02
       5.7650164E-02
       5.3007905E-02
       5.4029747E-02
       5.1968907E-02
       5.6760472E-02
       5.2429211E-02
       3.3609021E-03
       2.8256850E-02
       3.4708096E-02
       2.6666973E-02
       4.2935430E-02
       4.8628426E-02
       5.9487951E-02
       3.4973761E-03
       1.1448599E-02
       4.6808468E-02
       4.5512703E-02
       3.7605172E-02
       5.9085908E-03
       1.4626243E-02
       1.9238848E-02
       1.7114118E-02
       2.0367251E-02
       1.7894767E-02
       2.4410833E-02
       2.1101689E-02
       2.5237101E-02
       5.9887765E-02
       4.2814817E-03
       4.2995417E-02
       4.1840394E-02
       2.9555406E-02
       5.8642092E-02
       5.1941336E-02
       1.8211774E-02
       3.8220996E-02
       2.1451733E-02
       2.4563831E-02
       8.0007597E-04
       3.3714328E-02
       3.5375395E-02
       3.4086688E-02
       3.9589611E-02
       3.6060229E-02
       1.2767727E-02
       2.1504928E-02
       4.0565531E-02
       5.2066522E-02
       4.3608902E-02
       4.0724210E-02
       3.8258729E-02
       4.6670432E-02
       2.9071018E-02
       2.0496126E-02
       3.6396083E-03
       3.0330833E-02
       3.4820518E-02
       6.1297216E-02
       1.1119396E-02
       2.8177093E-02
       2.6656015E-02
       5.3791330E-02
       4.5096060E-02
       2.2155630E-02
       2.4424993E-02
       3.6004747E-02
       0.0000000E+00
       5.1998097E-02
       4.3972635E-02
       5.2838572E-03
       5.2247889E-02
       1.7130833E-02
       3.9190321E-02
       3.7324079E-02
       3.7970629E-02
       9.8764611E-03
       6.9876279E-03