# vtk DataFile Version 3.0
# Solution du M1 TR
ASCII
DATASET UNSTRUCTURED_GRID
POINTS    255  float
0.0000000E+00  0.0000000E+00  0.0000000E+00
0.0000000E+00  0.1000000E+01  0.0000000E+00
0.1000000E+01  0.1000000E+01  0.0000000E+00
0.1000000E+01  0.0000000E+00  0.0000000E+00
0.5000000E+00  0.5000000E+00  0.0000000E+00
0.0000000E+00  0.5000000E+00  0.0000000E+00
0.5000000E+00  0.0000000E+00  0.0000000E+00
0.2500000E+00  0.5000000E+00  0.0000000E+00
0.2500000E+00  0.9687500E+00  0.0000000E+00
0.5000000E+00  0.1000000E+01  0.0000000E+00
0.0000000E+00  0.2500000E+00  0.0000000E+00
0.3750000E+00  0.2500000E+00  0.0000000E+00
0.2500000E+00  0.3125000E-01  0.0000000E+00
0.1250000E+00  0.7500000E+00  0.0000000E+00
0.3911638E+00  0.7429957E+00  0.0000000E+00
0.1000000E+01  0.5000000E+00  0.0000000E+00
0.7500000E+00  0.0000000E+00  0.0000000E+00
0.6562500E+00  0.2656250E+00  0.0000000E+00
0.7500000E+00  0.4973958E+00  0.0000000E+00
0.8723823E+00  0.7500000E+00  0.0000000E+00
0.7500000E+00  0.9700452E+00  0.0000000E+00
0.6322989E+00  0.7103680E+00  0.0000000E+00
0.9186790E+00  0.2500000E+00  0.0000000E+00
0.6241122E+00  0.4134706E+00  0.0000000E+00
0.8850551E+00  0.9011034E+00  0.0000000E+00
0.8750000E+00  0.9756571E-01  0.0000000E+00
0.1000000E+01  0.7500000E+00  0.0000000E+00
0.7926728E+00  0.3452888E+00  0.0000000E+00
0.3854167E+00  0.9895833E-01  0.0000000E+00
0.2599627E+00  0.8179678E+00  0.0000000E+00
0.3750000E+00  0.4062500E+00  0.0000000E+00
0.1145833E+00  0.9010417E+00  0.0000000E+00
0.0000000E+00  0.7500000E+00  0.0000000E+00
0.1250000E+00  0.5937500E+00  0.0000000E+00
0.6250000E+00  0.1052390E+00  0.0000000E+00
0.7376584E+00  0.8191260E+00  0.0000000E+00
0.1760417E+00  0.1989583E+00  0.0000000E+00
0.1250000E+00  0.3750000E+00  0.0000000E+00
0.7663311E+00  0.6454318E+00  0.0000000E+00
0.5266793E+00  0.8371547E+00  0.0000000E+00
0.5008484E+00  0.6462514E+00  0.0000000E+00
0.6257190E+00  0.5677212E+00  0.0000000E+00
0.2566406E+00  0.6672397E+00  0.0000000E+00
0.9969894E+00  0.1250000E+00  0.0000000E+00
0.1000000E+01  0.2500000E+00  0.0000000E+00
0.0000000E+00  0.3750000E+00  0.0000000E+00
0.1020690E+00  0.2729310E+00  0.0000000E+00
0.7237960E-01  0.1705329E+00  0.0000000E+00
0.1178133E+00  0.7311825E-01  0.0000000E+00
0.4762698E+00  0.4014320E+00  0.0000000E+00
0.5303440E+00  0.3156721E+00  0.0000000E+00
0.8046824E+00  0.2302127E+00  0.0000000E+00
0.9230908E+00  0.3867911E+00  0.0000000E+00
0.8750000E+00  0.0000000E+00  0.0000000E+00
0.0000000E+00  0.8750000E+00  0.0000000E+00
0.2783119E+00  0.1438971E+00  0.0000000E+00
0.6250000E+00  0.0000000E+00  0.0000000E+00
0.6191150E+00  0.9359067E+00  0.0000000E+00
0.6312034E+00  0.8168420E+00  0.0000000E+00
0.1000000E+01  0.8750000E+00  0.0000000E+00
0.2578125E+00  0.3281250E+00  0.0000000E+00
0.3882478E+00  0.8980833E+00  0.0000000E+00
0.5030887E+00  0.1829537E+00  0.0000000E+00
0.3906250E-02  0.6250000E+00  0.0000000E+00
0.7508108E+00  0.1278183E+00  0.0000000E+00
0.1406250E+00  0.4843750E+00  0.0000000E+00
0.8748313E+00  0.5148913E+00  0.0000000E+00
0.9361911E+00  0.6250000E+00  0.0000000E+00
0.3750000E+00  0.5738533E+00  0.0000000E+00
0.1875000E+00  0.5468750E+00  0.0000000E+00
0.1328125E+00  0.5390625E+00  0.0000000E+00
0.1953125E+00  0.4921875E+00  0.0000000E+00
0.7031250E-01  0.4921875E+00  0.0000000E+00
0.6250000E-01  0.4375000E+00  0.0000000E+00
0.1328125E+00  0.4296875E+00  0.0000000E+00
0.2500000E+00  0.1000000E+01  0.0000000E+00
0.1250000E+00  0.9843750E+00  0.0000000E+00
0.3750000E+00  0.9843750E+00  0.0000000E+00
0.8125000E+00  0.4878285E-01  0.0000000E+00
0.8129054E+00  0.1126920E+00  0.0000000E+00
0.7504054E+00  0.6390916E-01  0.0000000E+00
0.6250000E-01  0.5468750E+00  0.0000000E+00
0.6445312E-01  0.6093750E+00  0.0000000E+00
0.1953125E-02  0.5625000E+00  0.0000000E+00
0.5015444E+00  0.9147684E-01  0.0000000E+00
0.4442527E+00  0.1409560E+00  0.0000000E+00
0.4427083E+00  0.4947917E-01  0.0000000E+00
0.3164062E+00  0.3671875E+00  0.0000000E+00
0.3125000E+00  0.4531250E+00  0.0000000E+00
0.2539062E+00  0.4140625E+00  0.0000000E+00
0.5004242E+00  0.5731257E+00  0.0000000E+00
0.4379242E+00  0.6100523E+00  0.0000000E+00
0.4375000E+00  0.5369266E+00  0.0000000E+00
0.1839067E+00  0.5218413E-01  0.0000000E+00
0.2641559E+00  0.8757355E-01  0.0000000E+00
0.1980626E+00  0.1085077E+00  0.0000000E+00
0.5729167E-01  0.9505208E+00  0.0000000E+00
0.1822917E+00  0.9348958E+00  0.0000000E+00
0.1924813E+00  0.7839839E+00  0.0000000E+00
0.1908203E+00  0.7086199E+00  0.0000000E+00
0.2583016E+00  0.7426037E+00  0.0000000E+00
0.5632837E+00  0.6069863E+00  0.0000000E+00
0.5628595E+00  0.5338606E+00  0.0000000E+00
0.3897058E+00  0.8205395E+00  0.0000000E+00
0.4589215E+00  0.7900752E+00  0.0000000E+00
0.4574635E+00  0.8676190E+00  0.0000000E+00
0.2169271E+00  0.2635417E+00  0.0000000E+00
0.2271768E+00  0.1714277E+00  0.0000000E+00
0.2680622E+00  0.2360111E+00  0.0000000E+00
0.3750000E+00  0.4900516E+00  0.0000000E+00
0.4375000E+00  0.4531250E+00  0.0000000E+00
0.2500000E+00  0.0000000E+00  0.0000000E+00
0.3750000E+00  0.1562500E-01  0.0000000E+00
0.1250000E+00  0.1562500E-01  0.0000000E+00
0.3177083E+00  0.6510417E-01  0.0000000E+00
0.4526720E+00  0.2828361E+00  0.0000000E+00
0.4390444E+00  0.2164768E+00  0.0000000E+00
0.5167164E+00  0.2493129E+00  0.0000000E+00
0.6878595E+00  0.5325585E+00  0.0000000E+00
0.7581656E+00  0.5714138E+00  0.0000000E+00
0.6960251E+00  0.6065765E+00  0.0000000E+00
0.5133396E+00  0.9185774E+00  0.0000000E+00
0.4441239E+00  0.9490417E+00  0.0000000E+00
0.9680956E+00  0.6875000E+00  0.0000000E+00
0.9680956E+00  0.5625000E+00  0.0000000E+00
0.1000000E+01  0.6250000E+00  0.0000000E+00
0.9375000E+00  0.4878285E-01  0.0000000E+00
0.9984947E+00  0.6250000E-01  0.0000000E+00
0.9359947E+00  0.1112829E+00  0.0000000E+00
0.6875000E+00  0.5261949E-01  0.0000000E+00
0.6879054E+00  0.1165286E+00  0.0000000E+00
0.7083925E+00  0.3793797E+00  0.0000000E+00
0.7713364E+00  0.4213423E+00  0.0000000E+00
0.6870561E+00  0.4554332E+00  0.0000000E+00
0.1000000E+01  0.9375000E+00  0.0000000E+00
0.9425276E+00  0.9505517E+00  0.0000000E+00
0.9425276E+00  0.8880517E+00  0.0000000E+00
0.6249156E+00  0.4905959E+00  0.0000000E+00
0.8750000E+00  0.9850226E+00  0.0000000E+00
0.8175276E+00  0.9355743E+00  0.0000000E+00
0.5728971E+00  0.8865307E+00  0.0000000E+00
0.5595575E+00  0.9679534E+00  0.0000000E+00
0.7500000E+00  0.1000000E+01  0.0000000E+00
0.6250000E+00  0.9850226E+00  0.0000000E+00
0.4460061E+00  0.6946235E+00  0.0000000E+00
0.5137638E+00  0.7417030E+00  0.0000000E+00
0.6993150E+00  0.6778999E+00  0.0000000E+00
0.6290090E+00  0.6390446E+00  0.0000000E+00
0.8050203E+00  0.7845630E+00  0.0000000E+00
0.8787187E+00  0.8255517E+00  0.0000000E+00
0.8113568E+00  0.8601147E+00  0.0000000E+00
0.9615454E+00  0.4433956E+00  0.0000000E+00
0.9615454E+00  0.3183956E+00  0.0000000E+00
0.1000000E+01  0.3750000E+00  0.0000000E+00
0.8337521E+00  0.4300901E+00  0.0000000E+00
0.8578818E+00  0.3660400E+00  0.0000000E+00
0.8989610E+00  0.4508412E+00  0.0000000E+00
0.5665737E+00  0.6783097E+00  0.0000000E+00
0.5794891E+00  0.7737614E+00  0.0000000E+00
0.3125000E+00  0.5369266E+00  0.0000000E+00
0.5620561E+00  0.4567353E+00  0.0000000E+00
0.6317511E+00  0.7636050E+00  0.0000000E+00
0.5789413E+00  0.8269983E+00  0.0000000E+00
0.3191239E+00  0.9334167E+00  0.0000000E+00
0.2549813E+00  0.8933589E+00  0.0000000E+00
0.3241052E+00  0.8580255E+00  0.0000000E+00
0.8205812E+00  0.5801616E+00  0.0000000E+00
0.9055112E+00  0.5699457E+00  0.0000000E+00
0.8512611E+00  0.6352159E+00  0.0000000E+00
0.7519948E+00  0.7322789E+00  0.0000000E+00
0.8193567E+00  0.6977159E+00  0.0000000E+00
0.7438292E+00  0.8945856E+00  0.0000000E+00
0.6845575E+00  0.9529760E+00  0.0000000E+00
0.6783867E+00  0.8775164E+00  0.0000000E+00
0.6849787E+00  0.7647470E+00  0.0000000E+00
0.1799407E+00  0.3005280E+00  0.0000000E+00
0.1390553E+00  0.2359447E+00  0.0000000E+00
0.5103450E-01  0.2614655E+00  0.0000000E+00
0.5103450E-01  0.3239655E+00  0.0000000E+00
0.0000000E+00  0.3125000E+00  0.0000000E+00
0.3618980E-01  0.8526643E-01  0.0000000E+00
0.5890667E-01  0.3655913E-01  0.0000000E+00
0.9509647E-01  0.1218256E+00  0.0000000E+00
0.1469275E+00  0.1360383E+00  0.0000000E+00
0.3158203E+00  0.6205465E+00  0.0000000E+00
0.2533203E+00  0.5836199E+00  0.0000000E+00
0.6445312E-01  0.6875000E+00  0.0000000E+00
0.6250000E-01  0.7500000E+00  0.0000000E+00
0.1953125E-02  0.6875000E+00  0.0000000E+00
0.3802083E+00  0.1744792E+00  0.0000000E+00
0.6875000E+00  0.0000000E+00  0.0000000E+00
0.6250000E+00  0.5261949E-01  0.0000000E+00
0.6250000E-01  0.8125000E+00  0.0000000E+00
0.1197917E+00  0.8255208E+00  0.0000000E+00
0.5729167E-01  0.8880208E+00  0.0000000E+00
0.0000000E+00  0.8125000E+00  0.0000000E+00
0.1872730E+00  0.8595047E+00  0.0000000E+00
0.1250000E+00  0.6718750E+00  0.0000000E+00
0.1908203E+00  0.6304949E+00  0.0000000E+00
0.1875000E+00  0.4375000E+00  0.0000000E+00
0.1914062E+00  0.3515625E+00  0.0000000E+00
0.5932970E+00  0.2906486E+00  0.0000000E+00
0.5796694E+00  0.2242893E+00  0.0000000E+00
0.5625000E+00  0.5261949E-01  0.0000000E+00
0.5640444E+00  0.1440963E+00  0.0000000E+00
0.3164062E+00  0.2890625E+00  0.0000000E+00
0.3266559E+00  0.1969486E+00  0.0000000E+00
0.8556759E+00  0.2976444E+00  0.0000000E+00
0.7986776E+00  0.2877507E+00  0.0000000E+00
0.8616807E+00  0.2401063E+00  0.0000000E+00
0.9375000E+00  0.0000000E+00  0.0000000E+00
0.8750000E+00  0.4878285E-01  0.0000000E+00
0.7035304E+00  0.1967217E+00  0.0000000E+00
0.7777466E+00  0.1790155E+00  0.0000000E+00
0.7304662E+00  0.2479188E+00  0.0000000E+00
0.9374157E+00  0.5074457E+00  0.0000000E+00
0.9361911E+00  0.7500000E+00  0.0000000E+00
0.9042867E+00  0.6875000E+00  0.0000000E+00
0.4881349E+00  0.4507160E+00  0.0000000E+00
0.4256349E+00  0.4038410E+00  0.0000000E+00
0.6401811E+00  0.3395478E+00  0.0000000E+00
0.7244614E+00  0.3054569E+00  0.0000000E+00
0.9361911E+00  0.8125000E+00  0.0000000E+00
0.1000000E+01  0.8125000E+00  0.0000000E+00
0.3830819E+00  0.6584245E+00  0.0000000E+00
0.3255632E+00  0.7804817E+00  0.0000000E+00
0.3239022E+00  0.7051177E+00  0.0000000E+00
0.8124157E+00  0.5061436E+00  0.0000000E+00
0.8968395E+00  0.1737829E+00  0.0000000E+00
0.8398412E+00  0.1638892E+00  0.0000000E+00
0.6406250E+00  0.1854320E+00  0.0000000E+00
0.0000000E+00  0.6250000E+00  0.0000000E+00
0.5772281E+00  0.3645714E+00  0.0000000E+00
0.1135345E+00  0.3239655E+00  0.0000000E+00
0.3750000E+00  0.3281250E+00  0.0000000E+00
0.6251592E+00  0.8763744E+00  0.0000000E+00
0.6844309E+00  0.8179840E+00  0.0000000E+00
0.3318643E+00  0.1214277E+00  0.0000000E+00
0.5625000E+00  0.0000000E+00  0.0000000E+00
0.0000000E+00  0.9375000E+00  0.0000000E+00
0.8125000E+00  0.0000000E+00  0.0000000E+00
0.9208849E+00  0.3183956E+00  0.0000000E+00
0.9593395E+00  0.2500000E+00  0.0000000E+00
0.5501910E+00  0.4074513E+00  0.0000000E+00
0.5033069E+00  0.3585520E+00  0.0000000E+00
0.4256349E+00  0.3257160E+00  0.0000000E+00
0.1242106E+00  0.1847456E+00  0.0000000E+00
0.8722430E-01  0.2217319E+00  0.0000000E+00
0.3618980E-01  0.2102664E+00  0.0000000E+00
0.0000000E+00  0.1250000E+00  0.0000000E+00
0.6250000E-01  0.3750000E+00  0.0000000E+00
0.0000000E+00  0.4375000E+00  0.0000000E+00
0.9578342E+00  0.1875000E+00  0.0000000E+00
0.1000000E+01  0.1250000E+00  0.0000000E+00
0.9984947E+00  0.1875000E+00  0.0000000E+00
CELLS     118    472
3       7      33      65
3      65       5      37
3       9       1       8
3      16      25      64
3       5      33      63
3       6      62      28
3      60      30       7
3       4      40      68
3      48      12      55
3       1      31       8
3      29      13      42
3      41      40       4
3      61      14      39
3      60      36      55
3      68      30       4
3       0       6      12
3       6      28      12
3      50      11      62
3      41      18      38
3      39       9      61
3      26      67      15
3      25       3      43
3      34      16      64
3      23      27      18
3      59       2      24
3      23      18      41
3       2      20      24
3      39      57       9
3       2       9      20
3      39      14      40
3      38      21      41
3      35      19      24
3      15      52      44
3      66      27      52
3      39      40      21
3      68       7      30
3      40      41      21
3      23      41       4
3      39      21      58
3      61       8      29
3      38      66      67
3      35      38      19
3      35      20      57
3      38      35      21
3      60      46      36
3      10      46      45
3      47       0      48
3      48      55      36
3       7      68      42
3      63      13      32
3      28      62      11
3      56      16      34
3      54      13      31
3      13      54      32
3      29      31      13
3      31      29       8
3      42      13      33
3      60       7      37
3      17      50      62
3      62       6      34
3      11      60      55
3      22      27      51
3      53       3      25
3      17      64      51
3      66      52      15
3      67      26      19
3      49       4      30
3      27      23      17
3      35      24      20
3      59      19      26
3      40      14      68
3      14      29      42
3      19      38      67
3      66      38      18
3      27      66      18
3      15      67      66
3       5      65      33
3      37       7      65
3      25      22      51
3      17      34      64
3      13      63      33
3      32       5      63
3      34      17      62
3      50      17      23
3      60      37      46
3      11      30      60
3       8      61       9
3      14      61      29
3      19      59      24
3      57      39      58
3      20       9      57
3      21      35      58
3      57      58      35
3      12      28      55
3      11      55      28
3      34       6      56
3      31       1      54
3      25      16      53
3      27      22      52
3      44      52      22
3      17      51      27
3      25      51      64
3      49      23       4
3      50      49      11
3      11      49      30
3      23      49      50
3      47      48      36
3       0      12      48
3      46      47      36
3       0      47      10
3      45      46      37
3      47      46      10
3      37       5      45
3      43      22      25
3       3      44      43
3      22      43      44
3       7      42      33
3      14      42      68
CELL_TYPES     118
5
5
5
5
5
5
5
5
5
5
5
5
5
5
5
5
5
5
5
5
5
5
5
5
5
5
5
5
5
5
5
5
5
5
5
5
5
5
5
5
5
5
5
5
5
5
5
5
5
5
5
5
5
5
5
5
5
5
5
5
5
5
5
5
5
5
5
5
5
5
5
5
5
5
5
5
5
5
5
5
5
5
5
5
5
5
5
5
5
5
5
5
5
5
5
5
5
5
5
5
5
5
5
5
5
5
5
5
5
5
5
5
5
5
5
5
5
5
POINT_DATA     255
SCALARS hauteur float
LOOKUP_TABLE DEFAULT
       0.0000000E+00
      -0.0000000E+00
       0.0000000E+00
      -0.0000000E+00
       6.2500000E-02
       0.0000000E+00
       0.0000000E+00
       4.6875000E-02
       5.6762695E-03
      -0.0000000E+00
       0.0000000E+00
       4.3945312E-02
       5.6762695E-03
       2.0507812E-02
       4.5476373E-02
      -0.0000000E+00
       0.0000000E+00
       4.4004679E-02
       4.6873728E-02
       2.0874646E-02
       5.4482902E-03
       4.7835161E-02
       1.4007734E-02
       5.6892541E-02
       9.0660002E-03
       9.6301012E-03
      -0.0000000E+00
       3.7152024E-02
       2.1120710E-02
       2.8645021E-02
       5.6533813E-02
       9.0462043E-03
       0.0000000E+00
       2.6382446E-02
       2.2069624E-02
       2.8671428E-02
       2.3117345E-02
       2.5634766E-02
       4.0979576E-02
       3.3984639E-02
       5.7152470E-02
       5.7474630E-02
       4.2358205E-02
       3.2828889E-04
      -0.0000000E+00
       0.0000000E+00
       1.8187178E-02
       9.4971595E-03
       7.0437691E-03
       5.9935776E-02
       5.3806901E-02
       2.7852605E-02
       1.6838674E-02
       0.0000000E+00
       0.0000000E+00
       2.4743396E-02
       0.0000000E+00
       1.4145232E-02
       3.4827337E-02
      -0.0000000E+00
       4.2183772E-02
       2.1739347E-02
       3.7368981E-02
       9.1195107E-04
       2.0857383E-02
       3.0182898E-02
       2.7351089E-02
       1.4000928E-02
       5.7315397E-02
       3.7751198E-02
       2.8617594E-02
       3.9281789E-02
       1.6338173E-02
       1.4419556E-02
       2.8223936E-02
      -0.0000000E+00
       1.6822815E-03
       3.6048889E-03
       7.0692202E-03
       1.5207885E-02
       1.1205010E-02
       1.4519691E-02
       1.4353381E-02
       4.7971308E-04
       2.0777008E-02
       2.9895542E-02
       1.1603373E-02
       5.0258101E-02
       5.3238869E-02
       4.5960420E-02
       6.1163115E-02
       5.8555441E-02
       6.1187870E-02
       7.4233462E-03
       1.5531629E-02
       1.5364592E-02
       2.5401117E-03
       9.0727146E-03
       2.6322947E-02
       3.1881798E-02
       3.6619621E-02
       5.8683117E-02
       6.1230066E-02
       3.5022285E-02
       4.1184221E-02
       2.8506250E-02
       3.2969583E-02
       2.4937650E-02
       3.5377664E-02
       5.8570554E-02
       6.0982704E-02
       0.0000000E+00
       3.6048889E-03
       1.6822815E-03
       1.3193824E-02
       5.0255606E-02
       4.1773436E-02
       4.6736695E-02
       5.3449599E-02
       4.4902560E-02
       5.0490368E-02
       1.8684939E-02
       1.1939407E-02
       6.6357800E-03
       7.6009844E-03
      -0.0000000E+00
       2.7189308E-03
       8.8067291E-05
       5.9248999E-03
       1.0710106E-02
       2.2102437E-02
       4.8637664E-02
       4.3002891E-02
       5.3325451E-02
      -0.0000000E+00
       2.5461300E-03
       5.3852927E-03
       5.8578294E-02
       1.6136200E-03
       8.9916024E-03
       2.4613942E-02
       7.6448802E-03
      -0.0000000E+00
       3.4577571E-03
       5.2412014E-02
       4.7858616E-02
       4.5913564E-02
       5.3827593E-02
       2.6530429E-02
       1.5348102E-02
       1.8415414E-02
       9.1254933E-03
       8.0244959E-03
      -0.0000000E+00
       3.3974949E-02
       2.8292256E-02
       2.2488024E-02
       5.3584313E-02
       4.2657590E-02
       5.3417982E-02
       6.1076510E-02
       4.1994700E-02
       3.4876434E-02
       1.3504191E-02
       1.8097818E-02
       2.6685515E-02
       3.5860853E-02
       2.0971565E-02
       2.9338948E-02
       3.6562407E-02
       3.1216829E-02
       1.7969037E-02
       9.6768070E-03
       2.3450096E-02
       3.8821288E-02
       3.1019160E-02
       2.1582307E-02
       9.3518916E-03
       1.0606740E-02
       0.0000000E+00
       2.7205105E-03
       1.9526215E-03
       9.2063163E-03
       1.4731423E-02
       5.0879532E-02
       4.5964696E-02
       1.2954846E-02
       1.0986328E-02
       4.1879714E-04
       3.3942121E-02
       0.0000000E+00
       1.1683752E-02
       8.9263916E-03
       1.5187409E-02
       5.3706789E-03
       0.0000000E+00
       1.8379339E-02
       2.4112701E-02
       3.5972578E-02
       3.7490845E-02
       3.5282322E-02
       4.9748404E-02
       4.2391598E-02
       1.2267940E-02
       3.0327272E-02
       4.4449442E-02
       3.4787543E-02
       2.5816831E-02
       3.2954295E-02
       2.1746311E-02
       0.0000000E+00
       5.0753376E-03
       3.2959551E-02
       2.5404585E-02
       3.6710270E-02
       1.4663633E-02
       1.1200743E-02
       1.8595213E-02
       6.1857918E-02
       5.8856954E-02
       5.1656995E-02
       4.2349359E-02
       9.1006033E-03
      -0.0000000E+00
       5.3151050E-02
       3.7619240E-02
       4.5533783E-02
       3.8093362E-02
       1.3284014E-02
       1.8431560E-02
       3.4774728E-02
       0.0000000E+00
       5.6533115E-02
       2.2042320E-02
       5.1670074E-02
       2.5388423E-02
       3.2157221E-02
       2.3654868E-02
       0.0000000E+00
       0.0000000E+00
       0.0000000E+00
       1.5811182E-02
       7.3138564E-03
       5.9750478E-02
       5.7495604E-02
       5.3691707E-02
       1.6384217E-02
       1.3739123E-02
       5.7919958E-03
       0.0000000E+00
       1.3732910E-02
       0.0000000E+00
       6.1528347E-03
      -0.0000000E+00
       2.2897496E-04
