# vtk DataFile Version 3.0
# Solution du M1 TR
ASCII
DATASET UNSTRUCTURED_GRID
POINTS    290  float
0.0000000E+00  0.0000000E+00  0.0000000E+00
0.0000000E+00  0.1000000E+01  0.0000000E+00
0.1000000E+01  0.1000000E+01  0.0000000E+00
0.1000000E+01  0.0000000E+00  0.0000000E+00
0.5000000E+00  0.5000000E+00  0.0000000E+00
0.0000000E+00  0.5000000E+00  0.0000000E+00
0.5000000E+00  0.0000000E+00  0.0000000E+00
0.2500000E+00  0.5000000E+00  0.0000000E+00
0.2500000E+00  0.9687500E+00  0.0000000E+00
0.5000000E+00  0.1000000E+01  0.0000000E+00
0.0000000E+00  0.2500000E+00  0.0000000E+00
0.3750000E+00  0.2500000E+00  0.0000000E+00
0.2500000E+00  0.3125000E-01  0.0000000E+00
0.1250000E+00  0.7500000E+00  0.0000000E+00
0.3911638E+00  0.7429957E+00  0.0000000E+00
0.1000000E+01  0.5000000E+00  0.0000000E+00
0.7500000E+00  0.0000000E+00  0.0000000E+00
0.6562500E+00  0.2656250E+00  0.0000000E+00
0.7500000E+00  0.4973958E+00  0.0000000E+00
0.8723823E+00  0.7500000E+00  0.0000000E+00
0.7500000E+00  0.9700452E+00  0.0000000E+00
0.6322989E+00  0.7103680E+00  0.0000000E+00
0.9186790E+00  0.2500000E+00  0.0000000E+00
0.5008484E+00  0.6462514E+00  0.0000000E+00
0.6257190E+00  0.5677212E+00  0.0000000E+00
0.5266793E+00  0.8371547E+00  0.0000000E+00
0.7663311E+00  0.6454318E+00  0.0000000E+00
0.7376584E+00  0.8191260E+00  0.0000000E+00
0.1250000E+00  0.3750000E+00  0.0000000E+00
0.1760417E+00  0.1989583E+00  0.0000000E+00
0.1250000E+00  0.5937500E+00  0.0000000E+00
0.6250000E+00  0.1052390E+00  0.0000000E+00
0.0000000E+00  0.7500000E+00  0.0000000E+00
0.1145833E+00  0.9010417E+00  0.0000000E+00
0.2599627E+00  0.8179678E+00  0.0000000E+00
0.3750000E+00  0.4062500E+00  0.0000000E+00
0.3854167E+00  0.9895833E-01  0.0000000E+00
0.8750000E+00  0.9756571E-01  0.0000000E+00
0.7926728E+00  0.3452888E+00  0.0000000E+00
0.1000000E+01  0.7500000E+00  0.0000000E+00
0.6241122E+00  0.4134706E+00  0.0000000E+00
0.8850551E+00  0.9011034E+00  0.0000000E+00
0.3750000E+00  0.5738533E+00  0.0000000E+00
0.9361911E+00  0.6250000E+00  0.0000000E+00
0.8748313E+00  0.5148913E+00  0.0000000E+00
0.1406250E+00  0.4843750E+00  0.0000000E+00
0.7508108E+00  0.1278183E+00  0.0000000E+00
0.3906250E-02  0.6250000E+00  0.0000000E+00
0.5030887E+00  0.1829537E+00  0.0000000E+00
0.2578125E+00  0.3281250E+00  0.0000000E+00
0.3882478E+00  0.8980833E+00  0.0000000E+00
0.1000000E+01  0.8750000E+00  0.0000000E+00
0.6191150E+00  0.9359067E+00  0.0000000E+00
0.6312034E+00  0.8168420E+00  0.0000000E+00
0.2783119E+00  0.1438971E+00  0.0000000E+00
0.6250000E+00  0.0000000E+00  0.0000000E+00
0.0000000E+00  0.8750000E+00  0.0000000E+00
0.8750000E+00  0.0000000E+00  0.0000000E+00
0.9230908E+00  0.3867911E+00  0.0000000E+00
0.8046824E+00  0.2302127E+00  0.0000000E+00
0.5303440E+00  0.3156721E+00  0.0000000E+00
0.4762698E+00  0.4014320E+00  0.0000000E+00
0.1178133E+00  0.7311825E-01  0.0000000E+00
0.7237960E-01  0.1705329E+00  0.0000000E+00
0.1020690E+00  0.2729310E+00  0.0000000E+00
0.0000000E+00  0.3750000E+00  0.0000000E+00
0.1000000E+01  0.2500000E+00  0.0000000E+00
0.9969894E+00  0.1250000E+00  0.0000000E+00
0.2566406E+00  0.6672397E+00  0.0000000E+00
0.1861416E+00  0.2830309E+00  0.0000000E+00
0.2658988E+00  0.2357703E+00  0.0000000E+00
0.3956900E-01  0.3125000E+00  0.0000000E+00
0.9375000E+00  0.4878285E-01  0.0000000E+00
0.8125000E+00  0.4878285E-01  0.0000000E+00
0.5478384E+00  0.4363424E+00  0.0000000E+00
0.4380560E+00  0.3174094E+00  0.0000000E+00
0.4519794E+00  0.2411886E+00  0.0000000E+00
0.1875000E+00  0.5468750E+00  0.0000000E+00
0.6445312E-01  0.4394531E+00  0.0000000E+00
0.2002065E+00  0.1036461E+00  0.0000000E+00
0.8750000E+00  0.1000000E+01  0.0000000E+00
0.7500000E+00  0.1000000E+01  0.0000000E+00
0.8221702E+00  0.9446692E+00  0.0000000E+00
0.9375000E+00  0.9563951E+00  0.0000000E+00
0.2599106E-01  0.8959510E-01  0.0000000E+00
0.6875000E+00  0.5261949E-01  0.0000000E+00
0.7224151E-01  0.8222415E+00  0.0000000E+00
0.8524368E+00  0.2933612E+00  0.0000000E+00
0.7211336E+00  0.2088007E+00  0.0000000E+00
0.7340614E+00  0.2890171E+00  0.0000000E+00
0.6429465E+00  0.1849796E+00  0.0000000E+00
0.7069791E+00  0.3758855E+00  0.0000000E+00
0.7459677E-01  0.5307460E+00  0.0000000E+00
0.8719553E+00  0.1809132E+00  0.0000000E+00
0.9274068E+00  0.8214683E+00  0.0000000E+00
0.5877997E+00  0.8725813E+00  0.0000000E+00
0.6830520E+00  0.8822521E+00  0.0000000E+00
0.3750000E+00  0.0000000E+00  0.0000000E+00
0.2500000E+00  0.0000000E+00  0.0000000E+00
0.4375000E+00  0.4344846E-01  0.0000000E+00
0.3224826E+00  0.5555556E-01  0.0000000E+00
0.3533462E+00  0.1726266E+00  0.0000000E+00
0.5625000E+00  0.5261949E-01  0.0000000E+00
0.1250000E+00  0.1000000E+01  0.0000000E+00
0.2500000E+00  0.1000000E+01  0.0000000E+00
0.6250000E-01  0.9565515E+00  0.0000000E+00
0.1775174E+00  0.9444444E+00  0.0000000E+00
0.2842371E+00  0.4154412E+00  0.0000000E+00
0.2055377E+00  0.3916016E+00  0.0000000E+00
0.4590292E+00  0.5733658E+00  0.0000000E+00
0.5424884E+00  0.5739198E+00  0.0000000E+00
0.5827105E+00  0.6452264E+00  0.0000000E+00
0.4098050E+00  0.4900516E+00  0.0000000E+00
0.3306035E+00  0.5062857E+00  0.0000000E+00
0.2866293E+00  0.5835493E+00  0.0000000E+00
0.7126852E+00  0.5764312E+00  0.0000000E+00
0.6867445E+00  0.6519537E+00  0.0000000E+00
0.7331323E+00  0.7291651E+00  0.0000000E+00
0.8071726E+00  0.7100728E+00  0.0000000E+00
0.1000000E+01  0.6250000E+00  0.0000000E+00
0.6638849E+00  0.4901900E+00  0.0000000E+00
0.4903282E+00  0.7448741E+00  0.0000000E+00
0.5699048E+00  0.7629687E+00  0.0000000E+00
0.1000000E+01  0.3750000E+00  0.0000000E+00
0.8381824E+00  0.4279440E+00  0.0000000E+00
0.7637566E+00  0.4241543E+00  0.0000000E+00
0.8473113E+00  0.6023785E+00  0.0000000E+00
0.8765666E+00  0.6733497E+00  0.0000000E+00
0.6250000E-01  0.6893921E+00  0.0000000E+00
0.9321698E+00  0.4633520E+00  0.0000000E+00
0.4116682E+00  0.6556927E+00  0.0000000E+00
0.3358283E+00  0.6839399E+00  0.0000000E+00
0.9424053E+00  0.5493859E+00  0.0000000E+00
0.6101384E+00  0.3330173E+00  0.0000000E+00
0.3424479E+00  0.3281250E+00  0.0000000E+00
0.6250000E+00  0.1000000E+01  0.0000000E+00
0.5722362E+00  0.2379112E+00  0.0000000E+00
0.1250000E+00  0.0000000E+00  0.0000000E+00
0.4961093E+00  0.1010641E+00  0.0000000E+00
0.2128157E+00  0.7436063E+00  0.0000000E+00
0.1634524E+00  0.6718750E+00  0.0000000E+00
0.4371347E+00  0.8214313E+00  0.0000000E+00
0.4772928E+00  0.9126717E+00  0.0000000E+00
0.8282243E+00  0.8297866E+00  0.0000000E+00
0.3001743E+00  0.8963449E+00  0.0000000E+00
0.1698254E+00  0.8289714E+00  0.0000000E+00
0.3480054E+00  0.8197554E+00  0.0000000E+00
0.3750000E+00  0.1000000E+01  0.0000000E+00
0.1762151E+00  0.4194615E-01  0.0000000E+00
0.9680956E+00  0.6875000E+00  0.0000000E+00
0.5469063E+00  0.9322093E+00  0.0000000E+00
0.6250000E-01  0.3707934E+00  0.0000000E+00
0.6820887E+00  0.9624413E+00  0.0000000E+00
0.6283049E-01  0.3080178E-01  0.0000000E+00
0.9361911E+00  0.7431794E+00  0.0000000E+00
0.5218015E+00  0.8878721E+00  0.0000000E+00
0.9679019E-01  0.3277273E+00  0.0000000E+00
0.1328125E+00  0.5390625E+00  0.0000000E+00
0.7504054E+00  0.6390916E-01  0.0000000E+00
0.1808216E-01  0.5619960E+00  0.0000000E+00
0.6339867E-01  0.6052890E+00  0.0000000E+00
0.4407875E+00  0.9872212E-01  0.0000000E+00
0.3001302E+00  0.3629749E+00  0.0000000E+00
0.4168318E+00  0.5420986E+00  0.0000000E+00
0.2903688E-02  0.9375000E+00  0.0000000E+00
0.2839818E+00  0.7336885E+00  0.0000000E+00
0.2128527E+00  0.2371791E+00  0.0000000E+00
0.4836318E+00  0.2863527E+00  0.0000000E+00
0.6721714E+00  0.5424286E+00  0.0000000E+00
0.9359947E+00  0.1112829E+00  0.0000000E+00
0.9517510E+00  0.1836890E+00  0.0000000E+00
0.6340995E+00  0.5261949E-01  0.0000000E+00
0.7019908E+00  0.4392806E+00  0.0000000E+00
0.9971438E+00  0.9375000E+00  0.0000000E+00
0.6661390E+00  0.6026597E+00  0.0000000E+00
0.9899528E+00  0.4375000E+00  0.0000000E+00
0.8913051E+00  0.4293793E+00  0.0000000E+00
0.6237410E+00  0.7635226E+00  0.0000000E+00
0.5733745E+00  0.7037785E+00  0.0000000E+00
0.5793104E+00  0.5064590E+00  0.0000000E+00
0.5229786E+00  0.7853125E+00  0.0000000E+00
0.3034500E+00  0.8451604E+00  0.0000000E+00
0.7822547E+00  0.5776973E+00  0.0000000E+00
0.8303615E+00  0.5489748E+00  0.0000000E+00
0.7835876E+00  0.7717209E+00  0.0000000E+00
0.8327043E+00  0.7801531E+00  0.0000000E+00
0.6854136E+00  0.7052936E+00  0.0000000E+00
0.1401991E+00  0.1391516E+00  0.0000000E+00
0.3283395E+00  0.5561428E+00  0.0000000E+00
0.0000000E+00  0.6250000E+00  0.0000000E+00
0.6875000E+00  0.0000000E+00  0.0000000E+00
0.1710391E+00  0.7760750E+00  0.0000000E+00
0.2251053E+00  0.8853554E+00  0.0000000E+00
0.2111577E+00  0.6918965E+00  0.0000000E+00
0.1739414E+00  0.3412283E+00  0.0000000E+00
0.5600424E+00  0.1189662E+00  0.0000000E+00
0.3167099E+00  0.2715566E+00  0.0000000E+00
0.3179855E+00  0.2157803E+00  0.0000000E+00
0.8613497E+00  0.2369903E+00  0.0000000E+00
0.8872119E+00  0.4878285E-01  0.0000000E+00
0.7922406E+00  0.2870790E+00  0.0000000E+00
0.6821759E+00  0.3204970E+00  0.0000000E+00
0.4171914E+00  0.6040837E+00  0.0000000E+00
0.4882813E-01  0.4873992E+00  0.0000000E+00
0.1564016E+00  0.4263176E+00  0.0000000E+00
0.2116657E+00  0.4524059E+00  0.0000000E+00
0.8074225E+00  0.1634024E+00  0.0000000E+00
0.8041188E+00  0.1058338E+00  0.0000000E+00
0.6952898E+00  0.1534009E+00  0.0000000E+00
0.1077902E+00  0.6507460E+00  0.0000000E+00
0.5775078E+00  0.2909159E+00  0.0000000E+00
0.6842144E+00  0.8280762E+00  0.0000000E+00
0.2569848E+00  0.8937590E-01  0.0000000E+00
0.8125000E+00  0.0000000E+00  0.0000000E+00
0.8592925E+00  0.3616068E+00  0.0000000E+00
0.9593395E+00  0.3125000E+00  0.0000000E+00
0.9023280E+00  0.3228164E+00  0.0000000E+00
0.7565694E+00  0.2442398E+00  0.0000000E+00
0.4976452E+00  0.4484264E+00  0.0000000E+00
0.3936018E+00  0.3526551E+00  0.0000000E+00
0.5596593E+00  0.3730253E+00  0.0000000E+00
0.1480720E+00  0.2449614E+00  0.0000000E+00
0.9984947E+00  0.6250000E-01  0.0000000E+00
0.9375000E+00  0.0000000E+00  0.0000000E+00
0.4081568E+00  0.1990040E+00  0.0000000E+00
[...]
POINT_DATA     290
SCALARS hauteur float
LOOKUP_TABLE DEFAULT
       0.0000000E+00
      -0.0000000E+00
       0.0000000E+00
      -0.0000000E+00
       6.2500000E-02
       0.0000000E+00
       0.0000000E+00
       4.6875000E-02
       5.6762695E-03
      -0.0000000E+00
       0.0000000E+00
       4.3945312E-02
       5.6762695E-03
       2.0507812E-02
       4.5476373E-02
      -0.0000000E+00
       0.0000000E+00
       4.4004679E-02
       4.6873728E-02
       2.0874646E-02
       5.4482902E-03
       4.7835161E-02
       1.4007734E-02
       5.7152470E-02
       5.7474630E-02
       3.3984639E-02
       4.0979576E-02
       2.8671428E-02
       2.5634766E-02
       2.3117345E-02
       2.6382446E-02
       2.2069624E-02
       0.0000000E+00
       9.0462043E-03
       2.8645021E-02
       5.6533813E-02
       2.1120710E-02
       9.6301012E-03
       3.7152024E-02
      -0.0000000E+00
       5.6892541E-02
       9.0660002E-03
       5.7315397E-02
       1.4000928E-02
       2.7351089E-02
       3.0182898E-02
       2.0857383E-02
       9.1195107E-04
       3.7368981E-02
       4.2183772E-02
       2.1739347E-02
      -0.0000000E+00
       1.4145232E-02
       3.4827337E-02
       2.4743396E-02
       0.0000000E+00
       0.0000000E+00
       0.0000000E+00
       1.6838674E-02
       2.7852605E-02
       5.3806901E-02
       5.9935776E-02
       7.0437691E-03
       9.4971595E-03
       1.8187178E-02
       0.0000000E+00
      -0.0000000E+00
       3.2828889E-04
       4.2358205E-02
       3.0741602E-02
       3.5171049E-02
       8.1647699E-03
       2.7189308E-03
       7.0692202E-03
       6.0924072E-02
       5.3333827E-02
       4.5332130E-02
       3.7751198E-02
       1.4853679E-02
       1.4876083E-02
      -0.0000000E+00
      -0.0000000E+00
       7.6421065E-03
       2.4435636E-03
       2.0649324E-03
       1.0710106E-02
       9.7960617E-03
       2.6075963E-02
       3.3222306E-02
       4.0114048E-02
       3.4609913E-02
       4.8598739E-02
       1.7192767E-02
       1.6544588E-02
       9.8735293E-03
       2.6938701E-02
       2.2489907E-02
       0.0000000E+00
       0.0000000E+00
       1.0227827E-02
       1.1463855E-02
       3.2634842E-02
       1.2267940E-02
      -0.0000000E+00
      -0.0000000E+00
       2.4351970E-03
       7.6607534E-03
       4.9406915E-02
       3.8904270E-02
       6.0743748E-02
       6.0692513E-02
       5.5661349E-02
       6.0442279E-02
       5.5317460E-02
       4.9690911E-02
       4.9995075E-02
       4.8814370E-02
       3.8637486E-02
       3.2042547E-02
      -0.0000000E+00
       5.5763957E-02
       4.7491394E-02
       4.4328128E-02
      -0.0000000E+00
       3.3203957E-02
       4.4070168E-02
       3.0987698E-02
       2.3798053E-02
       1.2546717E-02
       1.5722385E-02
       5.4678456E-02
       4.8215343E-02
       1.3437010E-02
       5.2834815E-02
       4.9642368E-02
      -0.0000000E+00
       4.4381286E-02
       0.0000000E+00
       2.2711167E-02
       3.1939675E-02
       3.0144620E-02
       3.6090790E-02
       1.9884414E-02
       2.0094156E-02
       1.9517723E-02
       1.9988507E-02
       3.3525591E-02
      -0.0000000E+00
       5.8336326E-03
       6.6357800E-03
       1.5659749E-02
       1.3670252E-02
       7.8384711E-03
       1.7578308E-03
       1.1401685E-02
       2.4841497E-02
       1.9260966E-02
       2.8617594E-02
       1.1205010E-02
       4.3705561E-03
       1.4186555E-02
       2.1932055E-02
       4.8569103E-02
       6.0339949E-02
       1.6964394E-04
       3.9729786E-02
       3.0313360E-02
       5.1033952E-02
       5.4692570E-02
       5.9248999E-03
       6.8857320E-03
       1.1566220E-02
       5.1528645E-02
       1.6687791E-04
       5.3255602E-02
       2.4477145E-03
       2.3736919E-02
       4.2374319E-02
       5.0996191E-02
       6.0917299E-02
       4.2060175E-02
       2.7660543E-02
       4.1554800E-02
       3.4877458E-02
       2.9874188E-02
       2.3893275E-02
       4.4817969E-02
       1.4439699E-02
       5.4438046E-02
       0.0000000E+00
       0.0000000E+00
       2.4639714E-02
       1.7705155E-02
       3.5508707E-02
       3.2299354E-02
       2.5825452E-02
       4.2807804E-02
       3.6698682E-02
       2.1595385E-02
       4.6434163E-03
       3.3686865E-02
       4.7217019E-02
       5.8151617E-02
       1.1603610E-02
       3.2268720E-02
       4.1337855E-02
       2.1255998E-02
       1.4905816E-02
       2.7514297E-02
       2.1857429E-02
       5.0331723E-02
       3.0760315E-02
       1.5540488E-02
       0.0000000E+00
       2.7911487E-02
       8.3804605E-03
       1.9266225E-02
       3.3995728E-02
       6.1833669E-02
       5.4487999E-02
       5.7636934E-02
       2.3331499E-02
       8.8067291E-05
       0.0000000E+00
       3.8505767E-02
       4.5251042E-02
       3.8760676E-02
       0.0000000E+00
       2.3074980E-02
       1.7258648E-02
      -0.0000000E+00
       4.8292536E-03
       4.2888696E-02
       5.2640524E-02
       1.2096580E-02
       2.2265796E-02
       0.0000000E+00
      -0.0000000E+00
       4.7948794E-03
       7.8686401E-03
       1.1605042E-02
       5.7414019E-02
       4.4382610E-02
       6.0101100E-02
       6.1908342E-02
       5.8397631E-02
       5.3629518E-02
       5.1581074E-02
       4.3050514E-02
       5.2244794E-02
       3.2990256E-02
       3.6529429E-02
       2.3950386E-02
       1.0929814E-02
       5.0094418E-02
      -0.0000000E+00
       4.1656425E-02
       2.7924800E-02
       3.0952536E-02
       1.4158071E-02
       3.8939794E-02
       1.6809340E-03
       4.0406756E-02
       4.5395896E-02
       5.9770007E-02
       6.1529556E-06
       1.4238424E-02
       3.5421199E-02
       2.0377817E-02
       2.2369654E-02
       1.4410636E-02
       4.8890479E-02
       7.2232599E-03
       1.5000695E-03
       1.3712505E-02
       5.6584837E-02
       9.6911944E-03
       4.7971308E-04
       0.0000000E+00
       1.6698560E-03
       1.4696015E-03
       1.6971705E-02
       6.0096200E-02
       5.2969194E-02
       4.4056850E-02
       7.2457287E-03
       5.2619829E-02
       3.7929680E-02
       3.8586450E-02
       3.2778884E-02
