# vtk DataFile Version 3.0
# Solution du M1 TR
ASCII
DATASET UNSTRUCTURED_GRID
POINTS    290  float
0.0000000E+00  0.0000000E+00  0.0000000E+00
0.0000000E+00  0.1000000E+01  0.0000000E+00
0.1000000E+01  0.1000000E+01  0.0000000E+00
0.1000000E+01  0.0000000E+00  0.0000000E+00
0.5000000E+00  0.5000000E+00  0.0000000E+00
0.0000000E+00  0.5000000E+00  0.0000000E+00
0.5000000E+00  0.0000000E+00  0.0000000E+00
0.2500000E+00  0.5000000E+00  0.0000000E+00
0.2500000E+00  0.9687500E+00  0.0000000E+00
0.5000000E+00  0.1000000E+01  0.0000000E+00
0.0000000E+00  0.2500000E+00  0.0000000E+00
0.3750000E+00  0.2500000E+00  0.0000000E+00
0.2500000E+00  0.3125000E-01  0.0000000E+00
0.1250000E+00  0.7500000E+00  0.0000000E+00
0.3911638E+00  0.7429957E+00  0.0000000E+00
0.1000000E+01  0.5000000E+00  0.0000000E+00
0.7500000E+00  0.0000000E+00  0.0000000E+00
0.6562500E+00  0.2656250E+00  0.0000000E+00
0.7500000E+00  0.4973958E+00  0.0000000E+00
0.8723823E+00  0.7500000E+00  0.0000000E+00
0.7500000E+00  0.9700452E+00  0.0000000E+00
0.6322989E+00  0.7103680E+00  0.0000000E+00
0.9186790E+00  0.2500000E+00  0.0000000E+00
0.5008484E+00  0.6462514E+00  0.0000000E+00
0.6257190E+00  0.5677212E+00  0.0000000E+00
0.5266793E+00  0.8371547E+00  0.0000000E+00
0.7663311E+00  0.6454318E+00  0.0000000E+00
0.7376584E+00  0.8191260E+00  0.0000000E+00
0.1250000E+00  0.3750000E+00  0.0000000E+00
0.1760417E+00  0.1989583E+00  0.0000000E+00
0.1250000E+00  0.5937500E+00  0.0000000E+00
0.6250000E+00  0.1052390E+00  0.0000000E+00
0.0000000E+00  0.7500000E+00  0.0000000E+00
0.1145833E+00  0.9010417E+00  0.0000000E+00
0.2599627E+00  0.8179678E+00  0.0000000E+00
0.3750000E+00  0.4062500E+00  0.0000000E+00
0.3854167E+00  0.9895833E-01  0.0000000E+00
0.8750000E+00  0.9756571E-01  0.0000000E+00
0.7926728E+00  0.3452888E+00  0.0000000E+00
0.1000000E+01  0.7500000E+00  0.0000000E+00
0.6241122E+00  0.4134706E+00  0.0000000E+00
0.8850551E+00  0.9011034E+00  0.0000000E+00
0.3750000E+00  0.5738533E+00  0.0000000E+00
0.9361911E+00  0.6250000E+00  0.0000000E+00
0.8748313E+00  0.5148913E+00  0.0000000E+00
0.1406250E+00  0.4843750E+00  0.0000000E+00
0.7508108E+00  0.1278183E+00  0.0000000E+00
0.3906250E-02  0.6250000E+00  0.0000000E+00
0.5030887E+00  0.1829537E+00  0.0000000E+00
0.2578125E+00  0.3281250E+00  0.0000000E+00
0.3882478E+00  0.8980833E+00  0.0000000E+00
0.1000000E+01  0.8750000E+00  0.0000000E+00
0.6191150E+00  0.9359067E+00  0.0000000E+00
0.6312034E+00  0.8168420E+00  0.0000000E+00
0.2783119E+00  0.1438971E+00  0.0000000E+00
0.6250000E+00  0.0000000E+00  0.0000000E+00
0.0000000E+00  0.8750000E+00  0.0000000E+00
0.8750000E+00  0.0000000E+00  0.0000000E+00
0.9230908E+00  0.3867911E+00  0.0000000E+00
0.8046824E+00  0.2302127E+00  0.0000000E+00
0.5303440E+00  0.3156721E+00  0.0000000E+00
0.4762698E+00  0.4014320E+00  0.0000000E+00
0.1178133E+00  0.7311825E-01  0.0000000E+00
0.7237960E-01  0.1705329E+00  0.0000000E+00
0.1020690E+00  0.2729310E+00  0.0000000E+00
0.0000000E+00  0.3750000E+00  0.0000000E+00
0.1000000E+01  0.2500000E+00  0.0000000E+00
0.9969894E+00  0.1250000E+00  0.0000000E+00
0.2566406E+00  0.6672397E+00  0.0000000E+00
0.1861416E+00  0.2830309E+00  0.0000000E+00
0.2658988E+00  0.2357703E+00  0.0000000E+00
0.3956900E-01  0.3125000E+00  0.0000000E+00
0.9375000E+00  0.4878285E-01  0.0000000E+00
0.8125000E+00  0.4878285E-01  0.0000000E+00
0.5478384E+00  0.4363424E+00  0.0000000E+00
0.4380560E+00  0.3174094E+00  0.0000000E+00
0.4519794E+00  0.2411886E+00  0.0000000E+00
0.1875000E+00  0.5468750E+00  0.0000000E+00
0.6445312E-01  0.4394531E+00  0.0000000E+00
0.2002065E+00  0.1036461E+00  0.0000000E+00
0.8750000E+00  0.1000000E+01  0.0000000E+00
0.7500000E+00  0.1000000E+01  0.0000000E+00
0.8221702E+00  0.9446692E+00  0.0000000E+00
0.9375000E+00  0.9563951E+00  0.0000000E+00
0.2599106E-01  0.8959510E-01  0.0000000E+00
0.6875000E+00  0.5261949E-01  0.0000000E+00
0.7224151E-01  0.8222415E+00  0.0000000E+00
0.8524368E+00  0.2933612E+00  0.0000000E+00
0.7211336E+00  0.2088007E+00  0.0000000E+00
0.7340614E+00  0.2890171E+00  0.0000000E+00
0.6429465E+00  0.1849796E+00  0.0000000E+00
0.7069791E+00  0.3758855E+00  0.0000000E+00
0.7459677E-01  0.5307460E+00  0.0000000E+00
0.8719553E+00  0.1809132E+00  0.0000000E+00
0.9274068E+00  0.8214683E+00  0.0000000E+00
0.5877997E+00  0.8725813E+00  0.0000000E+00
0.6830520E+00  0.8822521E+00  0.0000000E+00
0.3750000E+00  0.0000000E+00  0.0000000E+00
0.2500000E+00  0.0000000E+00  0.0000000E+00
0.4375000E+00  0.4344846E-01  0.0000000E+00
0.3224826E+00  0.5555556E-01  0.0000000E+00
0.3533462E+00  0.1726266E+00  0.0000000E+00
0.5625000E+00  0.5261949E-01  0.0000000E+00
0.1250000E+00  0.1000000E+01  0.0000000E+00
0.2500000E+00  0.1000000E+01  0.0000000E+00
0.6250000E-01  0.9565515E+00  0.0000000E+00
0.1775174E+00  0.9444444E+00  0.0000000E+00
0.2842371E+00  0.4154412E+00  0.0000000E+00
0.2055377E+00  0.3916016E+00  0.0000000E+00
0.4590292E+00  0.5733658E+00  0.0000000E+00
0.5424884E+00  0.5739198E+00  0.0000000E+00
0.5827105E+00  0.6452264E+00  0.0000000E+00
0.4098050E+00  0.4900516E+00  0.0000000E+00
0.3306035E+00  0.5062857E+00  0.0000000E+00
0.2866293E+00  0.5835493E+00  0.0000000E+00
0.7126852E+00  0.5764312E+00  0.0000000E+00
0.6867445E+00  0.6519537E+00  0.0000000E+00
0.7331323E+00  0.7291651E+00  0.0000000E+00
0.8071726E+00  0.7100728E+00  0.0000000E+00
0.1000000E+01  0.6250000E+00  0.0000000E+00
0.6638849E+00  0.4901900E+00  0.0000000E+00
0.4903282E+00  0.7448741E+00  0.0000000E+00
0.5699048E+00  0.7629687E+00  0.0000000E+00
0.1000000E+01  0.3750000E+00  0.0000000E+00
0.8381824E+00  0.4279440E+00  0.0000000E+00
0.7637566E+00  0.4241543E+00  0.0000000E+00
0.8473113E+00  0.6023785E+00  0.0000000E+00
0.8765666E+00  0.6733497E+00  0.0000000E+00
0.6250000E-01  0.6893921E+00  0.0000000E+00
0.9321698E+00  0.4633520E+00  0.0000000E+00
0.4116682E+00  0.6556927E+00  0.0000000E+00
0.3358283E+00  0.6839399E+00  0.0000000E+00
0.9424053E+00  0.5493859E+00  0.0000000E+00
0.6101384E+00  0.3330173E+00  0.0000000E+00
0.3424479E+00  0.3281250E+00  0.0000000E+00
0.6250000E+00  0.1000000E+01  0.0000000E+00
0.5722362E+00  0.2379112E+00  0.0000000E+00
0.1250000E+00  0.0000000E+00  0.0000000E+00
0.4961093E+00  0.1010641E+00  0.0000000E+00
0.2128157E+00  0.7436063E+00  0.0000000E+00
0.1634524E+00  0.6718750E+00  0.0000000E+00
0.4371347E+00  0.8214313E+00  0.0000000E+00
0.4772928E+00  0.9126717E+00  0.0000000E+00
0.8282243E+00  0.8297866E+00  0.0000000E+00
0.3001743E+00  0.8963449E+00  0.0000000E+00
0.1698254E+00  0.8289714E+00  0.0000000E+00
0.3480054E+00  0.8197554E+00  0.0000000E+00
0.3750000E+00  0.1000000E+01  0.0000000E+00
0.1762151E+00  0.4194615E-01  0.0000000E+00
0.9680956E+00  0.6875000E+00  0.0000000E+00
0.5469063E+00  0.9322093E+00  0.0000000E+00
0.6250000E-01  0.3707934E+00  0.0000000E+00
0.6820887E+00  0.9624413E+00  0.0000000E+00
0.6283049E-01  0.3080178E-01  0.0000000E+00
0.9361911E+00  0.7431794E+00  0.0000000E+00
0.5218015E+00  0.8878721E+00  0.0000000E+00
0.9679019E-01  0.3277273E+00  0.0000000E+00
0.1328125E+00  0.5390625E+00  0.0000000E+00
0.7504054E+00  0.6390916E-01  0.0000000E+00
0.1808216E-01  0.5619960E+00  0.0000000E+00
0.6339867E-01  0.6052890E+00  0.0000000E+00
0.4407875E+00  0.9872212E-01  0.0000000E+00
0.3001302E+00  0.3629749E+00  0.0000000E+00
0.4168318E+00  0.5420986E+00  0.0000000E+00
0.2903688E-02  0.9375000E+00  0.0000000E+00
0.2839818E+00  0.7336885E+00  0.0000000E+00
0.2128527E+00  0.2371791E+00  0.0000000E+00
0.4836318E+00  0.2863527E+00  0.0000000E+00
0.6721714E+00  0.5424286E+00  0.0000000E+00
0.9359947E+00  0.1112829E+00  0.0000000E+00
0.9517510E+00  0.1836890E+00  0.0000000E+00
0.6340995E+00  0.5261949E-01  0.0000000E+00
0.7019908E+00  0.4392806E+00  0.0000000E+00
0.9971438E+00  0.9375000E+00  0.0000000E+00
0.6661390E+00  0.6026597E+00  0.0000000E+00
0.9899528E+00  0.4375000E+00  0.0000000E+00
0.8913051E+00  0.4293793E+00  0.0000000E+00
0.6237410E+00  0.7635226E+00  0.0000000E+00
0.5733745E+00  0.7037785E+00  0.0000000E+00
0.5793104E+00  0.5064590E+00  0.0000000E+00
0.5229786E+00  0.7853125E+00  0.0000000E+00
0.3034500E+00  0.8451604E+00  0.0000000E+00
0.7822547E+00  0.5776973E+00  0.0000000E+00
0.8303615E+00  0.5489748E+00  0.0000000E+00
0.7835876E+00  0.7717209E+00  0.0000000E+00
0.8327043E+00  0.7801531E+00  0.0000000E+00
0.6854136E+00  0.7052936E+00  0.0000000E+00
0.1401991E+00  0.1391516E+00  0.0000000E+00
0.3283395E+00  0.5561428E+00  0.0000000E+00
0.0000000E+00  0.6250000E+00  0.0000000E+00
0.6875000E+00  0.0000000E+00  0.0000000E+00
0.1710391E+00  0.7760750E+00  0.0000000E+00
0.2251053E+00  0.8853554E+00  0.0000000E+00
0.2111577E+00  0.6918965E+00  0.0000000E+00
0.1739414E+00  0.3412283E+00  0.0000000E+00
0.5600424E+00  0.1189662E+00  0.0000000E+00
0.3167099E+00  0.2715566E+00  0.0000000E+00
0.3179855E+00  0.2157803E+00  0.0000000E+00
0.8613497E+00  0.2369903E+00  0.0000000E+00
0.8872119E+00  0.4878285E-01  0.0000000E+00
0.7922406E+00  0.2870790E+00  0.0000000E+00
0.6821759E+00  0.3204970E+00  0.0000000E+00
0.4171914E+00  0.6040837E+00  0.0000000E+00
0.4882813E-01  0.4873992E+00  0.0000000E+00
0.1564016E+00  0.4263176E+00  0.0000000E+00
0.2116657E+00  0.4524059E+00  0.0000000E+00
0.8074225E+00  0.1634024E+00  0.0000000E+00
0.8041188E+00  0.1058338E+00  0.0000000E+00
0.6952898E+00  0.1534009E+00  0.0000000E+00
0.1077902E+00  0.6507460E+00  0.0000000E+00
0.5775078E+00  0.2909159E+00  0.0000000E+00
0.6842144E+00  0.8280762E+00  0.0000000E+00
0.2569848E+00  0.8937590E-01  0.0000000E+00
0.8125000E+00  0.0000000E+00  0.0000000E+00
0.8592925E+00  0.3616068E+00  0.0000000E+00
0.9593395E+00  0.3125000E+00  0.0000000E+00
0.9023280E+00  0.3228164E+00  0.0000000E+00
0.7565694E+00  0.2442398E+00  0.0000000E+00
0.4976452E+00  0.4484264E+00  0.0000000E+00
0.3936018E+00  0.3526551E+00  0.0000000E+00
0.5596593E+00  0.3730253E+00  0.0000000E+00
0.1480720E+00  0.2449614E+00  0.0000000E+00
0.9984947E+00  0.6250000E-01  0.0000000E+00
0.9375000E+00  0.0000000E+00  0.0000000E+00
0.4081568E+00  0.1990040E+00  0.0000000E+00
[...]
POINT_DATA     290
SCALARS hauteur float
LOOKUP_TABLE DEFAULT
       0.0000000E+00
       0.0000000E+00
       0.0000000E+00
       0.0000000E+00
       6.2639068E-02
       0.0000000E+00
       0.0000000E+00
       4.6989052E-02
       5.7077881E-03
       0.0000000E+00
       0.0000000E+00
       4.4208941E-02
       5.6411687E-03
       2.0629240E-02
       4.5504602E-02
       0.0000000E+00
       0.0000000E+00
       4.4202133E-02
       4.7186089E-02
       2.0928454E-02
       5.5020542E-03
       4.7828677E-02
       1.4094188E-02
       5.7275444E-02
       5.7466249E-02
       3.3848509E-02
       4.1045237E-02
       2.8821166E-02
       2.5690672E-02
       2.3168807E-02
       2.6525485E-02
       2.2140843E-02
       0.0000000E+00
       9.1967584E-03
       2.8836364E-02
       5.6663373E-02
       2.1319987E-02
       9.6587157E-03
       3.7252229E-02
       0.0000000E+00
       5.7132742E-02
       9.2326361E-03
       5.7397058E-02
       1.4139750E-02
       2.7480867E-02
       3.0300586E-02
       2.0914099E-02
       9.2126360E-04
       3.7518802E-02
       4.2572710E-02
       2.1797437E-02
       0.0000000E+00
       1.4213078E-02
       3.4875678E-02
       2.4751210E-02
       0.0000000E+00
       0.0000000E+00
       0.0000000E+00
       1.6916298E-02
       2.7973223E-02
       5.3920952E-02
       6.0111729E-02
       6.9991117E-03
       9.3738393E-03
       1.8153949E-02
       0.0000000E+00
       0.0000000E+00
       3.3365060E-04
       4.2391471E-02
       3.0788501E-02
       3.5323965E-02
       8.2428092E-03
       2.6477573E-03
       7.1655211E-03
       6.1162608E-02
       5.3319157E-02
       4.5511149E-02
       3.7864653E-02
       1.4840111E-02
       1.4956604E-02
       0.0000000E+00
       0.0000000E+00
       7.5832301E-03
       2.3781382E-03
       1.8593406E-03
       1.0670411E-02
       9.9305105E-03
       2.6160233E-02
       3.3351336E-02
       4.0224669E-02
       3.4779358E-02
       4.8583358E-02
       1.7171417E-02
       1.6660257E-02
       9.8501380E-03
       2.7030128E-02
       2.2658057E-02
       0.0000000E+00
       0.0000000E+00
       1.0233103E-02
       1.1420265E-02
       3.2651375E-02
       1.2256824E-02
       0.0000000E+00
       0.0000000E+00
       2.3527298E-03
       7.5894051E-03
       4.9534919E-02
       3.9035618E-02
       6.0631998E-02
       6.0690523E-02
       5.5852424E-02
       6.0621451E-02
       5.5519149E-02
       4.9705635E-02
       5.0109011E-02
       4.8967784E-02
       3.8784270E-02
       3.2250582E-02
       0.0000000E+00
       5.6004276E-02
       4.7410417E-02
       4.4328513E-02
       0.0000000E+00
       3.3322670E-02
       4.4255994E-02
       3.1090150E-02
       2.3982839E-02
       1.2658743E-02
       1.5710973E-02
       5.4731337E-02
       4.8313109E-02
       1.3400624E-02
       5.3092924E-02
       4.9777586E-02
       0.0000000E+00
       4.4353111E-02
       0.0000000E+00
       2.2707808E-02
       3.1917216E-02
       3.0134129E-02
       3.6183526E-02
       1.9992407E-02
       2.0056965E-02
       1.9528906E-02
       1.9936841E-02
       3.3608770E-02
       0.0000000E+00
       5.8629607E-03
       6.6971374E-03
       1.5663258E-02
       1.3674149E-02
       7.8242234E-03
       1.7476688E-03
       1.1381518E-02
       2.4826322E-02
       1.9250308E-02
       2.8517615E-02
       1.1174780E-02
       4.3698213E-03
       1.4148647E-02
       2.1822286E-02
       4.8596494E-02
       6.0586653E-02
       1.7295076E-04
       3.9812301E-02
       3.0424360E-02
       5.0980179E-02
       5.4716393E-02
       5.8634446E-03
       6.9551898E-03
       1.1547306E-02
       5.1690860E-02
       1.7164348E-04
       5.3342967E-02
       2.4420845E-03
       2.3731351E-02
       4.2410355E-02
       5.1028362E-02
       6.1182745E-02
       4.2007007E-02
       2.7859335E-02
       4.1626840E-02
       3.4992959E-02
       2.9903667E-02
       2.3827395E-02
       4.4892408E-02
       1.4516114E-02
       5.4592096E-02
       0.0000000E+00
       0.0000000E+00
       2.4790074E-02
       1.7854360E-02
       3.5605339E-02
       3.2364354E-02
       2.5836737E-02
       4.2855314E-02
       3.6663009E-02
       2.1534088E-02
       4.6962638E-03
       3.3695379E-02
       4.7308618E-02
       5.8331056E-02
       1.1657757E-02
       3.2340319E-02
       4.1659187E-02
       2.1225640E-02
       1.4937847E-02
       2.7423322E-02
       2.1865985E-02
       5.0439923E-02
       3.0674464E-02
       1.5492211E-02
       0.0000000E+00
       2.7942803E-02
       8.3765231E-03
       1.9267036E-02
       3.3846829E-02
       6.1913069E-02
       5.4749929E-02
       5.7824026E-02
       2.3271155E-02
       1.3361216E-04
       0.0000000E+00
       3.8572629E-02
       4.5232025E-02
       3.8897499E-02
       0.0000000E+00
       2.3140068E-02
       1.7229598E-02
       0.0000000E+00
       4.9029385E-03
       4.3010097E-02
       5.2721075E-02
       1.2127764E-02
       2.2207853E-02
       0.0000000E+00
       0.0000000E+00
       4.8041237E-03
       7.8426380E-03
       1.1583351E-02
       5.7537716E-02
       4.4460786E-02
       6.0204089E-02
       6.2013763E-02
       5.8501983E-02
       5.3861468E-02
       5.1612366E-02
       4.3065414E-02
       5.2461299E-02
       3.3037051E-02
       3.6528388E-02
       2.3910527E-02
       1.0981833E-02
       5.0200113E-02
       0.0000000E+00
       4.1655696E-02
       2.7966588E-02
       3.0941326E-02
       1.4161838E-02
       3.9014997E-02
       1.6748037E-03
       4.0623847E-02
       4.5405242E-02
       5.9773119E-02
       6.0939877E-06
       1.4232597E-02
       3.5425818E-02
       2.0406948E-02
       2.2365593E-02
       1.4301771E-02
       4.8710267E-02
       7.1916871E-03
       1.4899920E-03
       1.3767350E-02
       5.6700807E-02
       9.7890184E-03
       4.8839747E-04
       0.0000000E+00
       1.6864236E-03
       1.4928494E-03
       1.7137132E-02
       6.0188570E-02
       5.3056801E-02
       4.4094963E-02
       7.2520771E-03
       5.2713330E-02
       3.7958564E-02
       3.8677809E-02
       3.2778928E-02
